 DBCSR| CPU Multiplication driver                                           XSMM (U)
 DBCSR| Multrec recursion limit                                              512 (U)
 DBCSR| Multiplication stack size                                           1000 (D)
 DBCSR| Maximum elements for images                                    UNLIMITED (U)
 DBCSR| Multiplicative factor virtual images                                   1 (U)
 DBCSR| Use multiplication densification                                       T (D)
 DBCSR| Multiplication size stacks                                             3 (U)
 DBCSR| Use memory pool for CPU allocation                                     F (U)
 DBCSR| Number of 3D layers                                               SINGLE (U)
 DBCSR| Use MPI memory allocation                                              F (U)
 DBCSR| Use RMA algorithm                                                      F (U)
 DBCSR| Use Communication thread                                               T (U)
 DBCSR| Communication thread load                                             83 (D)
 DBCSR| MPI: My process id                                                     0
 DBCSR| MPI: Number of processes                                              88
 DBCSR| OMP: Current number of threads                                         2
 DBCSR| OMP: Max number of threads                                             2
 DBCSR| Split modifier for TAS multiplication algorithm                  1.0E+00 (U)


  **** **** ******  **  PROGRAM STARTED AT               2023-12-26 16:17:13.265
 ***** ** ***  *** **   PROGRAM STARTED ON                          3cde33015ee8
 **    ****   ******    PROGRAM STARTED BY                             <unknown>
 ***** **    ** ** **   PROGRAM PROCESS ID                                   538
  **** **  *******  **  PROGRAM STARTED IN                                  /mnt

 CP2K| version string:                                       CP2K version 2023.2
 CP2K| source code revision number:                                  git:65cca6c
 CP2K| cp2kflags: omp libint fftw3 libxc pexsi elpa parallel scalapack cosma qui
 CP2K|            p xsmm plumed2 spglib sirius libvori libbqb libtorch libvdwxc
 CP2K| is freely available from                            https://www.cp2k.org/
 CP2K| Program compiled at                          Wed Oct 18 11:40:41 UTC 2023
 CP2K| Program compiled on                                          633bb7bf566f
 CP2K| Program compiled for                                                local
 CP2K| Data directory path                                        /opt/cp2k/data
 CP2K| Input file name                                        4amp1_cam_b3lyp.in

 GLOBAL| Force Environment number                                              1
 GLOBAL| Basis set file name                                    BASIS_MOLOPT_UZH
 GLOBAL| Potential file name                                       POTENTIAL_UZH
 GLOBAL| MM Potential file name                                     MM_POTENTIAL
 GLOBAL| Coordinate file name                                      __STD_INPUT__
 GLOBAL| Method name                                                        CP2K
 GLOBAL| Project name                                            4amp1_cam_b3lyp
 GLOBAL| Run type                                                         ENERGY
 GLOBAL| FFT library                                                       FFTW3
 GLOBAL| Diagonalization library                                       ScaLAPACK
 GLOBAL| DGEMM library                                                      BLAS
 GLOBAL| Orthonormality check for eigenvectors                          DISABLED
 GLOBAL| Matrix multiplication library                                     COSMA
 GLOBAL| All-to-all communication in single precision                          F
 GLOBAL| FFTs using library dependent lengths                                  F
 GLOBAL| Grid backend                                                       AUTO
 GLOBAL| Global print level                                                  LOW
 GLOBAL| MPI I/O enabled                                                       T
 GLOBAL| Total number of message passing processes                            88
 GLOBAL| Number of threads for this process                                    2
 GLOBAL| This output is from process                                           0
 GLOBAL| Stack size for threads created by OpenMP (OMP_STACKSIZE)            16M
 GLOBAL| CPU model name                         AMD EPYC 9V33X 96-Core Processor
 GLOBAL| CPUID                                                              1003
 GLOBAL| Compiled for CPUID                                                    0

 *** HINT in environment.F:904 :: The compiler target flags (generic) used ***
 *** to build this binary cannot exploit all extensions of this CPU model  ***
 *** (x86_avx512). Consider compiler target flags as part of FCFLAGS and   ***
 *** CFLAGS (ARCH file).                                                   ***


 MEMORY| system memory details [Kb]
 MEMORY|                        rank 0           min           max       average
 MEMORY| MemTotal           1444892880    1444892880    1444892880    1444892880
 MEMORY| MemFree            1425135060    1425135060    1425156348    1425142283
 MEMORY| Buffers                 37356         37356         37356         37356
 MEMORY| Cached                1217056       1217056       1217056       1217056
 MEMORY| Slab                  1094172       1094128       1094172       1094152
 MEMORY| SReclaimable           136476        136476        136476        136476
 MEMORY| MemLikelyFree      1426525948    1426525948    1426547236    1426533171


 GENERATE|  Preliminary Number of Bonds generated:                             0
 GENERATE|  Achieved consistency in connectivity generation.

 *******************************************************************************
 *******************************************************************************
 **                                                                           **
 **     #####                         ##              ##                      **
 **    ##   ##            ##          ##              ##                      **
 **   ##     ##                       ##            ######                    **
 **   ##     ##  ##   ##  ##   #####  ##  ##   ####   ##    #####    #####    **
 **   ##     ##  ##   ##  ##  ##      ## ##   ##      ##   ##   ##  ##   ##   **
 **   ##  ## ##  ##   ##  ##  ##      ####     ###    ##   ######   ######    **
 **    ##  ###   ##   ##  ##  ##      ## ##      ##   ##   ##       ##        **
 **     #######   #####   ##   #####  ##  ##  ####    ##    #####   ##        **
 **           ##                                                    ##        **
 **                                                                           **
 **                                                ... make the atoms dance   **
 **                                                                           **
 **            Copyright (C) by CP2K developers group (2000-2023)             **
 **                      J. Chem. Phys. 152, 194103 (2020)                    **
 **                                                                           **
 *******************************************************************************


 TOTAL NUMBERS AND MAXIMUM NUMBERS

  Total number of            - Atomic kinds:                                   4
                             - Atoms:                                        196
                             - Shell sets:                                   196
                             - Shells:                                      1120
                             - Primitive Cartesian functions:                980
                             - Cartesian basis functions:                   2520
                             - Spherical basis functions:                   2408

  Maximum angular momentum of- Orbital basis functions:                        2
                             - Local part of the GTH pseudopotential:          2
                             - Non-local part of the GTH pseudopotential:      0

  AUX_FIT ADMM-Basis: 
  Total number of            - Shell sets:                                  1120
                             - Shells:                                      1120
                             - Primitive Cartesian functions:               1428
                             - Cartesian basis functions:                   2520
                             - Spherical basis functions:                   2408
                               Maximum angular momentum                        2


 SCF PARAMETERS         Density guess:                                   RESTART
                        --------------------------------------------------------
                        max_scf:                                              50
                        max_scf_history:                                       0
                        max_diis:                                              4
                        --------------------------------------------------------
                        eps_scf:                                        1.00E-06
                        eps_scf_history:                                0.00E+00
                        eps_diis:                                       1.00E-01
                        eps_eigval:                                     1.00E-05
                        --------------------------------------------------------
                        level_shift [a.u.]:                             0.000000
                        --------------------------------------------------------
                        Outer loop SCF in use 
                        No variables optimised in outer loop
                        eps_scf                                         1.00E-06
                        max_scf                                               30
                        No outer loop optimization
                        step_size                                       5.00E-01

  HFX_INFO| Replica ID:                                                        1
  HFX_INFO| FRACTION:                                               1.0000000000
  HFX_INFO| Interaction Potential:                              TRUNCATED MIX_CL
  HFX_INFO| Cutoff Radius [angstrom]:                               2.5000000000
  HFX_INFO| EPS_SCHWARZ:                                                 1.0E-10
  HFX_INFO| EPS_SCHWARZ_FORCES                                           1.0E-06
  HFX_INFO| EPS_STORAGE_SCALING:                                         1.0E+00
  HFX_INFO| NBINS:                                                            64
  HFX_INFO| BLOCK_SIZE:                                                        2
  HFX_INFO| NUMBER_OF_SHELLS:                                               AUTO
  HFX_INFO| Number of periodic shells considered:                             -1
  HFX_INFO| Number of periodic cells considered:                              37


 Number of electrons:                                                        560
 Number of occupied orbitals:                                                280
 Number of molecular orbitals:                                               280

 Number of orbital functions:                                               2408
 Number of independent orbital functions:                                   2408

 Extrapolation method: initial_guess


 SCF WAVEFUNCTION OPTIMIZATION

  ----------------------------------- OT ---------------------------------------
  Minimizer      : DIIS                : direct inversion
                                         in the iterative subspace
                                         using   7 DIIS vectors
                                         safer DIIS on
  Preconditioner : FULL_ALL            : diagonalization, state selective
  Precond_solver : DEFAULT
  stepsize       :    0.15000000                  energy_gap     :    0.00100000
  eps_taylor     :   0.10000E-15                  max_taylor     :             4
  ----------------------------------- OT ---------------------------------------

  Step     Update method      Time    Convergence         Total energy    Change
  ------------------------------------------------------------------------------

  HFX_MEM_INFO| Est. max. program size before HFX [MiB]:                     583
  HFX_MEM_INFO| Number of cart. primitive ERI's calculated:         616205659155
  HFX_MEM_INFO| Number of sph. ERI's calculated:                    227902291615
  HFX_MEM_INFO| Number of sph. ERI's stored in-core:                 17020051814
  HFX_MEM_INFO| Number of sph. ERI's stored on disk:                           0
  HFX_MEM_INFO| Number of sph. ERI's calculated on the fly:         210882239801
  HFX_MEM_INFO| Total memory consumption ERI's RAM [MiB]:                  41188
  HFX_MEM_INFO| Whereof max-vals [MiB]:                                      543
  HFX_MEM_INFO| Total compression factor ERI's RAM:                         3.15
  HFX_MEM_INFO| Total memory consumption ERI's disk [MiB]:                     0
  HFX_MEM_INFO| Total compression factor ERI's disk:                        0.00
  HFX_MEM_INFO| Size of density/Fock matrix [MiB]:                            44
  HFX_MEM_INFO| Size of buffers [MiB]:                                        14
  HFX_MEM_INFO| Number of periodic image cells considered:                    37
  HFX_MEM_INFO| Est. max. program size after HFX  [MiB]:                    1234

     1 OT DIIS     0.15E+00  326.4     0.00000008      -824.5280070569 -8.25E+02

  *** SCF run converged in     1 steps ***


  Electronic density on regular grids:       -559.9999999681        0.0000000319
  Core density on regular grids:              559.9999999598       -0.0000000402
  Total charge density on r-space grids:       -0.0000000082
  Total charge density g-space grids:          -0.0000000082

  Overlap energy of the core charge distribution:               0.00146218304205
  Self energy of the core charge distribution:              -1985.29240839861768
  Core Hamiltonian energy:                                    644.35331127511677
  Hartree energy:                                             772.54609753651016
  Exchange-correlation energy:                               -170.01357958713618
  Hartree-Fock Exchange energy:                               -85.68860626869956
  Dispersion energy:                                           -0.43428379716192

  Total energy:                                              -824.52800705694631

  outer SCF iter =    1 RMS gradient =   0.81E-07 energy =       -824.5280070569
  outer SCF loop converged in   1 iterations or    1 steps

  
  Eigenvalues of the occupied subspace spin            1
 ---------------------------------------------
      -0.94196992     -0.94196574     -0.93930123     -0.93929455
      -0.93681202     -0.93678067     -0.93663984     -0.93660559
      -0.91251148     -0.91251117     -0.91246893     -0.91246827
      -0.83075835     -0.83073628     -0.83027892     -0.83025343
      -0.76653043     -0.76642742     -0.76552404     -0.76532855
      -0.76313321     -0.76257242     -0.76251731     -0.76208951
      -0.75121340     -0.75037395     -0.74999542     -0.74922670
      -0.70332087     -0.70316337     -0.70270118     -0.70269635
      -0.67193861     -0.67143697     -0.67096159     -0.67036738
      -0.66472653     -0.66387221     -0.66148045     -0.66133864
      -0.65961869     -0.65788338     -0.65711828     -0.65708849
      -0.65571841     -0.65469793     -0.65309227     -0.65298960
      -0.64518318     -0.64465428     -0.64406908     -0.64380160
      -0.63266178     -0.63191204     -0.63159545     -0.63109522
      -0.60407731     -0.60350600     -0.60148025     -0.60073232
      -0.59502052     -0.59401265     -0.59360800     -0.59284607
      -0.56256712     -0.56239139     -0.56210702     -0.56208415
      -0.54027802     -0.54010815     -0.53895105     -0.53880100
      -0.51484315     -0.51477227     -0.51469101     -0.51458461
      -0.51203816     -0.51074781     -0.50982528     -0.50891482
      -0.50829270     -0.50669739     -0.50641488     -0.50636340
      -0.49763521     -0.49671466     -0.49617523     -0.49581865
      -0.46641266     -0.46572287     -0.46316073     -0.46303236
      -0.45047031     -0.44891065     -0.44782424     -0.44601395
      -0.43816237     -0.43746182     -0.43368043     -0.43261300
      -0.42803066     -0.42768519     -0.42611550     -0.42516707
      -0.42093496     -0.42061155     -0.42020466     -0.41839713
      -0.41324385     -0.41317765     -0.40720839     -0.40665262
      -0.38379463     -0.38320329     -0.38301482     -0.38230585
      -0.37008822     -0.36995799     -0.36757998     -0.36641423
      -0.36497829     -0.36407419     -0.36364524     -0.36268506
      -0.35761516     -0.35639500     -0.35588179     -0.35455431
      -0.35370114     -0.35232831     -0.35228656     -0.35177905
      -0.35050823     -0.35041959     -0.34875836     -0.34751078
      -0.34319698     -0.34295827     -0.34228273     -0.34222943
      -0.34165541     -0.34165135     -0.34111288     -0.34074821
      -0.33700058     -0.33692175     -0.33467284     -0.33290956
      -0.32707755     -0.32598162     -0.32350648     -0.32324944
      -0.31435441     -0.31342219     -0.31277300     -0.31271335
      -0.30926742     -0.30684091     -0.30562784     -0.30472275
      -0.30361630     -0.30129976     -0.30106152     -0.30065959
      -0.29999392     -0.29986316     -0.29530155     -0.29451124
      -0.29390212     -0.29174346     -0.29161935     -0.29157382
      -0.28292580     -0.28216215     -0.28214178     -0.28213145
      -0.27721637     -0.27663507     -0.27598374     -0.27518164
      -0.27441391     -0.27403353     -0.27321945     -0.27301489
      -0.27261620     -0.27182199     -0.27110499     -0.27105944
      -0.26734055     -0.26592278     -0.26172381     -0.25941539
      -0.25911324     -0.25745436     -0.25739518     -0.25454427
      -0.25240591     -0.25205443     -0.25039965     -0.25022230
      -0.23845921     -0.23771649     -0.23741422     -0.23704449
      -0.22794706     -0.22781691     -0.22682312     -0.22540850
      -0.22232910     -0.22024801     -0.22001494     -0.21926696
      -0.21736055     -0.21733459     -0.21727529     -0.21694712
      -0.21566679     -0.21484088     -0.21466345     -0.21294518
      -0.20982029     -0.20762731     -0.20741900     -0.20739971
      -0.19964220     -0.19870348     -0.19691590     -0.19559646
      -0.18426386     -0.18341976     -0.18324263     -0.18316507
      -0.17943212     -0.17938885     -0.17901235     -0.17881928
      -0.17404205     -0.17376202     -0.16973863     -0.16846701
      -0.16517624     -0.16457743     -0.15908584     -0.15895856
      -0.13248186     -0.13244368     -0.13088210     -0.13064295
      -0.12629220     -0.12610407     -0.12429574     -0.12392120
      -0.09757702     -0.09749271     -0.09699633     -0.09696764
      -0.09032879     -0.09016978     -0.08751425     -0.08588593
      -0.08327338     -0.08323182     -0.07872809     -0.07655351
      -0.07026194     -0.06980566     -0.06749949     -0.06735738
      -0.05282330     -0.05098882     -0.04850659     -0.04633505
      -0.04614511     -0.04468260     -0.04459581     -0.04372510
      -0.03586360     -0.03500209     -0.03255373     -0.03145792
 Fermi Energy [eV] :   -0.856013
  
  Lowest Eigenvalues of the unoccupied subspace spin            1
 -----------------------------------------------------
 WARNING : did not converge in ot_eigensolver
 number of iterations          299  exceeded maximum
 current gradient / target gradient   3.5319314607892443E-005  /    1.0000000000000001E-005
       0.16183084
  
 HOMO - LUMO gap [eV] :    5.259655

 *******************************************************************************
 **                                                                           **
 **         ######## #######   #######   ######## #######  ########           **
 **            ##    ##     ## ##     ## ##       ##   ##     ##              **
 **            ##    ##     ## ##     ## ######   #######     ##              **
 **            ##    ##     ## ##     ## ##       ##          ##              **
 **            ##    #######   #######   ##       ##          ##              **
 **                                                                           **
 *******************************************************************************
 KERNEL|                                                                    sTDA
 KERNEL| Coulomb term uses Ewald summation
 KERNEL| Exact exchange term                                                 YES
 KERNEL| Short range HFX fraction:                                         0.200
 KERNEL| Transition density filter                                     0.100E-09
 KERNEL| Spin symmetry of excitations                                    Singlet
 TDDFPT| Number of states calculated                                         200
 TDDFPT| Number of Davidson iterations                                       100
 TDDFPT| Davidson iteration convergence                                0.367E-05
 TDDFPT| Max. number of Krylov space vectors                                5000
 TDDFPT| Molecular Orbitals:        Spin       AOs       Occ      Virt     Total
 TDDFPT|                               1      2408       280      2128      2408
 sTDA| HFX Fraction                                                       0.2000
 sTDA| Mataga-Nishimoto exponent (C)                                      1.5160
 sTDA| Mataga-Nishimoto exponent (X)                                      0.5660
 sTDA| TD matrix filter                                           0.10000000E-09
 
 -------------------------------------------------------------------------------
 -                      sTDA Kernel: Create Matrix SQRT(S)                     -
 -------------------------------------------------------------------------------

     Lanczos converged:  F threshold:   0.100E-03
     Est. extremal eigenvalues:    0.119E+02   0.278E-02
     Est. condition number :    0.427E+04

 Order=           3
     NS sqrt iter    1 1.00000000   0.297E+01       0.069     7304.616
     NS sqrt iter    2 1.00000000   0.151E+01       0.095    13324.479
     NS sqrt iter    3 1.00000000   0.823E+00       0.095    13329.739
     NS sqrt iter    4 1.00000000   0.575E+00       0.095    13305.932
     NS sqrt iter    5 1.00000000   0.441E+00       0.095    13325.439
     NS sqrt iter    6 1.00000000   0.312E+00       0.095    13295.433
     NS sqrt iter    7 1.00000000   0.179E+00       0.096    13288.583
     NS sqrt iter    8 1.00000000   0.885E-01       0.095    13306.191
     NS sqrt iter    9 1.00000000   0.207E-01       0.095    13339.715
     NS sqrt iter   10 1.00000000   0.477E-03       0.095    12870.489
     NS sqrt iter   11 1.00000000   0.114E-07       0.051     6474.964
     Symmetrizing Results
     Final NS sqrt iter   11 1.00000000   0.574E-07


 EWALD| Summation is done by:                                               SPME
 EWALD| Alpha parameter [       ANGSTROM^-1]                              1.8897
 EWALD| Real Space Cutoff [          ANGSTROM]                            1.7854
 EWALD| G-space max. Miller index                        125        45       225
 EWALD| Spline interpolation order                                             6
 
 -------------------------------------------------------------------------------
 -                            TDDFPT Initial Guess                             -
 -------------------------------------------------------------------------------
          State         Occupied      ->      Virtual          Excitation
          number         orbital              orbital          energy (eV)
 -------------------------------------------------------------------------------
             1              280                  281              5.25289
             2              280                  282              5.25369
             3              280                  283              5.25815
             4              280                  284              5.26571
             5              279                  281              5.28271
             6              279                  282              5.28351
             7              279                  283              5.28797
             8              279                  284              5.29552
             9              278                  281              5.34934
            10              278                  282              5.35013
            11              278                  283              5.35459
            12              278                  284              5.36215
            13              277                  281              5.37278
            14              277                  282              5.37357
            15              277                  283              5.37803
            16              277                  284              5.38559
            17              276                  281              5.58670
            18              276                  282              5.58750
            19              276                  283              5.59196
            20              276                  284              5.59951
            21              275                  281              5.61039
            22              275                  282              5.61119
            23              274                  281              5.61276
            24              274                  282              5.61355
            25              275                  283              5.61565
            26              274                  283              5.61801
            27              275                  284              5.62321
            28              274                  284              5.62557
            29              273                  281              5.65255
            30              273                  282              5.65335
            31              272                  281              5.65772
            32              273                  283              5.65781
            33              272                  282              5.65852
            34              272                  283              5.66298
            35              273                  284              5.66536
            36              272                  284              5.67053
            37              271                  281              5.71681
            38              271                  282              5.71761
            39              271                  283              5.72207
            40              271                  284              5.72962
            41              270                  281              5.78436
            42              270                  282              5.78515
            43              270                  283              5.78961
            44              270                  284              5.79717
            45              269                  281              5.83428
            46              269                  282              5.83507
            47              269                  283              5.83953
            48              269                  284              5.84709
            49              280                  285              5.97507
            50              280                  286              5.99892
            51              279                  285              6.00489
            52              279                  286              6.02874
            53              280                  287              6.03423
            54              280                  288              6.06064
            55              279                  287              6.06405
            56              278                  285              6.07152
            57              279                  288              6.09046
            58              277                  285              6.09496
            59              278                  286              6.09537
            60              277                  286              6.11881
            61              278                  287              6.13068
            62              277                  287              6.15412
            63              278                  288              6.15708
            64              277                  288              6.18053
            65              268                  281              6.22977
            66              268                  282              6.23056
            67              267                  281              6.23364
            68              267                  282              6.23443
            69              268                  283              6.23502
            70              267                  283              6.23889
            71              268                  284              6.24258
            72              267                  284              6.24645
            73              266                  281              6.29639
            74              266                  282              6.29718
            75              266                  283              6.30165
            76              265                  281              6.30881
            77              276                  285              6.30888
            78              266                  284              6.30920
            79              265                  282              6.30960
            80              265                  283              6.31406
            81              265                  284              6.32162
            82              275                  285              6.33257
            83              276                  286              6.33273
            84              274                  285              6.33494
            85              275                  286              6.35642
            86              274                  286              6.35879
            87              276                  287              6.36804
            88              273                  285              6.37473
            89              272                  285              6.37990
            90              275                  287              6.39174
            91              274                  287              6.39410
            92              276                  288              6.39445
            93              273                  286              6.39858
            94              272                  286              6.40375
            95              275                  288              6.41814
            96              274                  288              6.42050
            97              273                  287              6.43389
            98              271                  285              6.43899
            99              272                  287              6.43906
           100              273                  288              6.46030
           101              271                  286              6.46284
           102              272                  288              6.46547
           103              264                  281              6.48001
           104              264                  282              6.48080
           105              264                  283              6.48526
           106              264                  284              6.49282
           107              271                  287              6.49815
           108              270                  285              6.50654
           109              271                  288              6.52456
           110              270                  286              6.53039
           111              263                  281              6.53918
           112              263                  282              6.53998
           113              263                  283              6.54444
           114              263                  284              6.55199
           115              269                  285              6.55646
           116              270                  287              6.56570
           117              269                  286              6.58031
           118              270                  288              6.59210
           119              269                  287              6.61562
           120              269                  288              6.64202
           121              262                  281              6.66173
           122              262                  282              6.66253
           123              261                  281              6.66287
           124              261                  282              6.66366
           125              262                  283              6.66699
           126              261                  283              6.66812
           127              262                  284              6.67454
           128              261                  284              6.67568
           129              260                  281              6.73396
           130              260                  282              6.73475
           131              260                  283              6.73921
           132              260                  284              6.74677
           133              280                  289              6.75377
           134              259                  281              6.77826
           135              259                  282              6.77906
           136              259                  283              6.78352
           137              279                  289              6.78359
           138              259                  284              6.79108
           139              278                  289              6.85022
           140              280                  290              6.85032
           141              258                  281              6.85053
           142              258                  282              6.85132
           143              257                  281              6.85485
           144              257                  282              6.85565
           145              258                  283              6.85578
           146              257                  283              6.86011
           147              258                  284              6.86334
           148              257                  284              6.86766
           149              277                  289              6.87366
           150              279                  290              6.88014
           151              278                  290              6.94677
           152              268                  285              6.95195
           153              267                  285              6.95582
           154              280                  291              6.96360
           155              277                  290              6.97021
           156              268                  286              6.97580
           157              267                  286              6.97967
           158              279                  291              6.99342
           159              268                  287              7.01111
           160              267                  287              7.01498
           161              266                  285              7.01857
           162              265                  285              7.03099
           163              256                  281              7.03550
           164              255                  281              7.03629
           165              256                  282              7.03630
           166              255                  282              7.03708
           167              268                  288              7.03752
           168              256                  283              7.04076
           169              267                  288              7.04138
           170              255                  283              7.04154
           171              266                  286              7.04242
           172              256                  284              7.04832
           173              255                  284              7.04910
           174              254                  281              7.04979
           175              254                  282              7.05059
           176              253                  281              7.05209
           177              253                  282              7.05288
           178              265                  286              7.05484
           179              254                  283              7.05505
           180              253                  283              7.05734
           181              278                  291              7.06004
           182              280                  292              7.06101
           183              254                  284              7.06260
           184              253                  284              7.06490
           185              266                  287              7.07773
           186              277                  291              7.08348
           187              276                  289              7.08758
           188              265                  287              7.09015
           189              279                  292              7.09083
           190              266                  288              7.10414
           191              275                  289              7.11127
           192              274                  289              7.11364
           193              265                  288              7.11655
           194              273                  289              7.15343
           195              278                  292              7.15745
           196              272                  289              7.15860
           197              277                  292              7.18090
           198              276                  290              7.18413
           199              264                  285              7.20219
           200              275                  290              7.20782

      Number of active states:                                     595840
 -------------------------------------------------------------------------------
 
 -------------------------------------------------------------------------------
 -                      TDDFPT WAVEFUNCTION OPTIMIZATION                       -
 -------------------------------------------------------------------------------

          Step            Time         Convergence           Conv. states
 -------------------------------------------------------------------------------
             1            38.8          2.4460E-02                      0
             2            41.9          1.7058E-02                      0
             3            43.2          8.0120E-04                     18
             4            44.3          4.3699E-04                    153
             5            46.8          4.0110E-05                    189
             6            27.6          2.6706E-06                    200
 ------------------------- Restart Davidson iterations -------------------------
             7            22.6          8.6042E-16                    200
 
 -------------------------------------------------------------------------------
 -  TDDFPT run converged in 7 iteration(s) 
 -------------------------------------------------------------------------------

 R-TDDFPT states of multiplicity 1
 Transition dipoles calculated using velocity formulation

         State    Excitation        Transition dipole (a.u.)        Oscillator
         number   energy (eV)       x           y           z     strength (a.u.)
         ------------------------------------------------------------------------
 TDDFPT|      1       4.59607   7.4445E-04 -2.0561E-05 -1.3404E-04   6.44745E-08
 TDDFPT|      2       4.59734   3.9184E-05  2.9411E-04  2.1695E-05   9.96906E-09
 TDDFPT|      3       4.60905  -1.0804E-03 -3.2621E-01  2.0189E-04   1.20162E-02
 TDDFPT|      4       4.61104   1.4116E+00 -2.8695E-04 -2.7422E-01   2.33593E-01
 TDDFPT|      5       4.63034   1.2545E-02 -1.8993E-04 -2.9360E-03   1.88347E-05
 TDDFPT|      6       4.63168   2.4235E+00  7.9583E-05 -5.6905E-01   7.03202E-01
 TDDFPT|      7       4.63569   9.7784E-04  5.8710E-04 -1.9553E-04   1.52082E-07
 TDDFPT|      8       4.65496   2.7515E-05  1.9754E+00  1.8341E-07   4.45039E-01
 TDDFPT|      9       4.74041   5.0388E-03 -1.2235E-03 -6.3073E-05   3.12299E-06
 TDDFPT|     10       4.74124   1.1260E-02 -8.9704E-04 -1.3230E-04   1.48226E-05
 TDDFPT|     11       4.74251   1.2756E+00 -5.3723E-04 -1.2330E-02   1.89066E-01
 TDDFPT|     12       4.75515  -3.4776E-04 -1.4996E+00 -7.9753E-06   2.62000E-01
 TDDFPT|     13       4.79785  -2.2009E-01  3.4070E-04  8.6265E-02   6.56854E-03
 TDDFPT|     14       4.79833   7.2083E-03 -2.1955E-04 -2.8708E-03   7.08282E-06
 TDDFPT|     15       4.80125  -3.0986E-04 -2.1967E-01  1.2975E-04   5.67638E-03
 TDDFPT|     16       4.80303   1.7680E-04  1.8661E-03 -5.1467E-05   4.13761E-07
 TDDFPT|     17       4.91751   7.1467E-04 -7.7387E-04  9.3281E-04   2.38516E-07
 TDDFPT|     18       4.92148  -1.3840E-04  4.0332E-01 -2.1811E-04   1.96135E-02
 TDDFPT|     19       4.92485   5.3418E-01  1.3730E-04  7.2410E-01   9.76920E-02
 TDDFPT|     20       4.93206   3.3726E-04 -3.3022E-04  6.8593E-04   8.37719E-08
 TDDFPT|     21       4.95524   5.4218E-04 -1.4158E-04 -1.1111E-03   1.87985E-07
 TDDFPT|     22       4.95795  -2.5293E-01  1.3257E-05  5.3686E-01   4.27802E-02
 TDDFPT|     23       4.95823   7.4476E-03  6.3887E-05 -1.6002E-02   3.78436E-05
 TDDFPT|     24       4.96267   3.3819E-05  6.3267E-02  1.7610E-05   4.86670E-04
 TDDFPT|     25       4.97278   8.4134E-02 -4.6696E-05  1.6925E-01   4.35215E-03
 TDDFPT|     26       4.97528  -1.6833E-04 -3.1034E-04 -5.8976E-04   5.75892E-08
 TDDFPT|     27       4.97655  -4.1577E-04  1.0301E-03  2.3137E-04   1.56975E-07
 TDDFPT|     28       4.97708  -1.5130E-05 -8.2086E-02 -8.4411E-05   8.21623E-04
 TDDFPT|     29       4.99166  -3.0015E-04 -1.1728E-02 -1.1788E-04   1.68329E-05
 TDDFPT|     30       4.99167   2.1855E-03  2.1800E-03 -1.8618E-04   1.16954E-06
 TDDFPT|     31       4.99219  -1.5347E-04 -7.2573E-01  2.0515E-05   6.44170E-02
 TDDFPT|     32       4.99730   1.3133E+00 -8.9948E-05 -6.3294E-02   2.11662E-01
 TDDFPT|     33       5.05997   6.6498E-04  1.5229E-04 -3.0554E-04   6.92664E-08
 TDDFPT|     34       5.06471  -5.3733E-04 -2.5426E-04  2.0050E-04   4.88351E-08
 TDDFPT|     35       5.07529   1.1531E+00 -1.0336E-05 -5.6929E-01   2.05630E-01
 TDDFPT|     36       5.08674  -8.6830E-05 -5.7348E-01  3.1510E-05   4.09859E-02
 TDDFPT|     37       5.13096  -9.4956E-03 -1.0639E-03  3.1732E-03   1.27427E-05
 TDDFPT|     38       5.13167   5.4751E-01 -2.1065E-04 -1.8171E-01   4.18394E-02
 TDDFPT|     39       5.13186  -2.5940E-02  2.4514E-03  8.5958E-03   9.46462E-05
 TDDFPT|     40       5.13315  -6.0220E-04 -2.6230E-01  1.9329E-04   8.65259E-03
 TDDFPT|     41       5.16387   2.5113E-03 -1.1960E-04 -4.3498E-04   8.23604E-07
 TDDFPT|     42       5.16441  -9.5519E-04  4.9799E-04  1.7728E-04   1.50793E-07
 TDDFPT|     43       5.16676  -9.4045E-01  4.3497E-04  1.6256E-01   1.15302E-01
 TDDFPT|     44       5.17248   6.8154E-04  5.1321E-01 -1.1572E-04   3.33772E-02
 TDDFPT|     45       5.24308   6.5421E-03  2.7098E-04 -4.0845E-03   7.65003E-06
 TDDFPT|     46       5.24366   3.3833E-01 -1.7478E-04 -2.1346E-01   2.05582E-02
 TDDFPT|     47       5.24744  -3.6823E-04 -1.3460E-01  2.3919E-04   2.32923E-03
 TDDFPT|     48       5.24922  -5.1352E-04 -8.1334E-04  3.3316E-04   1.33261E-07
 TDDFPT|     49       5.32775  -3.8013E-01  8.7604E-06  8.2347E-01   1.07372E-01
 TDDFPT|     50       5.33972  -3.9488E-05 -2.1875E-05  7.6772E-05   1.03764E-09
 TDDFPT|     51       5.38112   4.9806E-02  1.1397E-05  4.7107E-03   3.29958E-04
 TDDFPT|     52       5.38264   2.6947E-04  6.1079E-05 -3.3519E-06   1.00690E-08
 TDDFPT|     53       5.39216  -1.0493E-04 -2.0837E-04  1.4997E-05   7.21991E-09
 TDDFPT|     54       5.39960   5.0559E-05  1.1662E+00 -3.3170E-05   1.79920E-01
 TDDFPT|     55       5.41269   1.2470E-05  3.0771E-01 -7.8213E-06   1.25563E-02
 TDDFPT|     56       5.42736  -4.2639E-05  3.1152E-04  4.5458E-05   1.34204E-08
 TDDFPT|     57       5.43897  -1.3208E-04  1.5489E-04  1.0376E-04   6.95643E-09
 TDDFPT|     58       5.44207   1.1889E-04 -3.0207E-01 -9.5317E-05   1.21661E-02
 TDDFPT|     59       5.47857   5.8799E-01  3.6445E-05 -2.8849E-01   5.75760E-02
 TDDFPT|     60       5.47885   2.8648E-03 -1.3096E-05 -1.4072E-03   1.36751E-06
 TDDFPT|     61       5.56392  -6.2007E-06  1.7819E-02  6.1484E-06   4.32823E-05
 TDDFPT|     62       5.56807   7.2156E-06 -1.0268E-04  1.3829E-06   1.44573E-09
 TDDFPT|     63       5.59394  -1.5389E-02  2.9359E-06 -3.7842E-02   2.28712E-04
 TDDFPT|     64       5.59629  -2.1427E-04 -1.5084E-05 -4.1401E-04   2.98272E-08
 TDDFPT|     65       5.60605  -3.7402E-01 -6.0869E-06 -2.7224E-01   2.93930E-02
 TDDFPT|     66       5.60951   5.0262E-04  9.0834E-05  3.2963E-04   5.07858E-08
 TDDFPT|     67       5.60963  -8.2511E-04 -5.7826E-05 -5.8528E-04   1.41102E-07
 TDDFPT|     68       5.62237   1.1880E-05  1.3620E-01  2.4146E-05   2.55538E-03
 TDDFPT|     69       5.62648   2.6960E-05  1.9960E-04  8.5733E-04   1.06911E-07
 TDDFPT|     70       5.62752   4.1390E-05  6.2463E-02  5.3605E-04   5.37958E-04
 TDDFPT|     71       5.62770  -6.1560E-05  3.4367E-03 -1.5171E-04   1.63215E-06
 TDDFPT|     72       5.62966  -6.0695E-03  1.2423E-04 -2.6283E-01   9.53293E-03
 TDDFPT|     73       5.64623   1.4136E-01  1.0540E-05  1.5253E-01   5.98241E-03
 TDDFPT|     74       5.65439  -5.6723E-05 -1.8180E-04 -4.4294E-05   5.29625E-09
 TDDFPT|     75       5.66724   4.6339E-05 -3.2018E-01  4.1475E-05   1.42334E-02
 TDDFPT|     76       5.67817   3.6368E-06 -2.0476E-05 -1.9000E-06   6.06694E-11
 TDDFPT|     77       5.69579  -2.3296E-06 -3.3050E-05  2.6411E-05   2.50525E-10
 TDDFPT|     78       5.70259   2.0982E-04  1.9339E-01  2.6865E-04   5.22504E-03
 TDDFPT|     79       5.70812  -8.4349E-01  8.1986E-05 -7.4428E-01   1.76966E-01
 TDDFPT|     80       5.70981   1.1217E-03 -5.4291E-05  9.5618E-04   3.04304E-07
 TDDFPT|     81       5.71411  -1.9929E-01 -6.4850E-05  5.6281E-02   6.00334E-03
 TDDFPT|     82       5.71539   8.4777E-05  6.5934E-05 -1.7536E-04   5.92120E-09
 TDDFPT|     83       5.73027   2.9351E-05  1.0406E-04 -1.4258E-05   1.66973E-09
 TDDFPT|     84       5.74088   4.2852E-05 -2.7308E-01  1.7167E-05   1.04889E-02
 TDDFPT|     85       5.74964   4.9567E-06 -1.5950E-04 -1.4874E-04   6.70376E-09
 TDDFPT|     86       5.74964   7.9880E-04  2.2686E-05  9.3935E-04   2.14251E-07
 TDDFPT|     87       5.75371  -6.6701E-02 -2.0203E-05 -2.0482E-01   6.54071E-03
 TDDFPT|     88       5.75495   2.9921E-01  3.8740E-05 -2.0286E-02   1.26811E-02
 TDDFPT|     89       5.75921  -8.8021E-04 -1.2238E-04 -1.7509E-04   1.15758E-07
 TDDFPT|     90       5.76404   6.8342E-06  4.8552E-01 -2.1669E-05   3.32893E-02
 TDDFPT|     91       5.77274  -1.2982E-04  2.2503E-04 -6.1511E-05   1.00803E-08
 TDDFPT|     92       5.77958  -2.6830E-05 -2.8978E-01 -2.9201E-05   1.18901E-02
 TDDFPT|     93       5.78763  -1.1387E-04  3.9377E-04 -1.0933E-04   2.55197E-08
 TDDFPT|     94       5.79426   4.5093E-04 -3.1771E-01  4.8147E-04   1.43288E-02
 TDDFPT|     95       5.79614   3.6203E-01  3.6191E-04  4.1745E-01   4.33583E-02
 TDDFPT|     96       5.80058   1.1325E-03  2.6092E-04  1.2129E-03   4.01033E-07
 TDDFPT|     97       5.80948   6.3164E-01 -8.4249E-05  8.1424E-01   1.51149E-01
 TDDFPT|     98       5.81854  -4.1326E-01 -2.9299E-04 -2.2309E-01   3.14396E-02
 TDDFPT|     99       5.82015  -6.4724E-04  4.0145E-03 -2.5305E-04   2.36684E-06
 TDDFPT|    100       5.82132  -2.1658E-03  2.7445E-03 -7.5590E-04   1.82476E-06
 TDDFPT|    101       5.82198  -1.6885E-04  4.5264E-01  6.9162E-05   2.92234E-02
 TDDFPT|    102       5.83329  -9.1155E-05  1.4150E-03 -2.0418E-04   2.93303E-07
 TDDFPT|    103       5.83544   4.1334E-04  1.6234E-01  8.5630E-05   3.76799E-03
 TDDFPT|    104       5.83680   3.6665E-01 -2.5804E-04 -6.7279E-03   1.92298E-02
 TDDFPT|    105       5.84059   1.3458E-04 -2.9817E-03 -3.3758E-05   1.27493E-06
 TDDFPT|    106       5.84218   1.5236E-04  4.4592E-01 -1.9885E-05   2.84613E-02
 TDDFPT|    107       5.84468  -6.5751E-04 -4.9821E-04 -7.4338E-05   9.82383E-08
 TDDFPT|    108       5.85994  -5.1155E-05 -1.8334E-05  2.8589E-05   5.41285E-10
 TDDFPT|    109       5.86510  -3.2484E-05  2.3555E-01 -2.9931E-05   7.97241E-03
 TDDFPT|    110       5.87719  -3.9075E-06 -3.9609E-05  1.7607E-05   2.72738E-10
 TDDFPT|    111       5.88987   3.5023E-01  5.5181E-05  1.8548E-01   2.26638E-02
 TDDFPT|    112       5.89418   6.5705E-04  8.8205E-05  3.3294E-04   7.94718E-08
 TDDFPT|    113       5.89757   2.1146E-04 -1.2896E-01  8.7790E-05   2.40282E-03
 TDDFPT|    114       5.90191   2.3062E-03 -4.9900E-04  8.0221E-04   8.98103E-07
 TDDFPT|    115       5.90216   2.4943E-01  8.2016E-05  8.6232E-02   1.00717E-02
 TDDFPT|    116       5.90659  -1.9750E-05  2.4436E-01 -1.1620E-05   8.64076E-03
 TDDFPT|    117       5.90855   3.4898E-04  4.2047E-04  1.0867E-04   4.49313E-08
 TDDFPT|    118       5.91111   1.2833E-04  2.3374E-04  2.5904E-05   1.03940E-08
 TDDFPT|    119       5.92991  -1.1196E-04  2.9554E-05 -9.8853E-05   3.36749E-09
 TDDFPT|    120       5.93909  -1.9594E-01 -1.6365E-06 -1.3898E-01   8.39651E-03
 TDDFPT|    121       5.98807  -1.0023E-01  2.6616E-04  9.0364E-02   2.67176E-03
 TDDFPT|    122       5.98980  -1.3621E-04 -1.8970E-01  1.3294E-04   5.28092E-03
 TDDFPT|    123       5.99290  -2.5001E-05 -3.5816E-04  3.6771E-05   1.91242E-08
 TDDFPT|    124       5.99567   8.6879E-05  7.4532E-05 -1.0037E-04   3.40444E-09
 TDDFPT|    125       6.00477  -3.7440E-05  6.0184E-02 -2.7090E-06   5.32870E-04
 TDDFPT|    126       6.00850  -2.2789E-05  1.5029E-01  3.6296E-05   3.32477E-03
 TDDFPT|    127       6.01056  -1.8353E-04  2.5654E-04  2.9559E-04   2.75175E-08
 TDDFPT|    128       6.01329  -5.5505E-02 -5.2360E-05  8.0248E-02   1.40260E-03
 TDDFPT|    129       6.01568   1.9050E-04  1.6298E-04 -3.2154E-04   2.45009E-08
 TDDFPT|    130       6.01992  -7.0990E-05 -1.6944E-04  8.6438E-05   6.07955E-09
 TDDFPT|    131       6.04362  -1.1715E-01 -8.0693E-06 -2.0531E-02   2.09443E-03
 TDDFPT|    132       6.05480  -2.2907E-04 -7.9324E-06 -3.0936E-05   7.93546E-09
 TDDFPT|    133       6.10733  -1.2639E-04  8.2435E-06  4.2388E-06   2.40319E-09
 TDDFPT|    134       6.11518   7.0413E-06  4.6480E-02 -6.1784E-06   3.23672E-04
 TDDFPT|    135       6.11954   1.5545E-04 -1.2183E-04  8.5536E-06   5.85894E-09
 TDDFPT|    136       6.12572  -2.4749E-01 -1.3623E-05 -1.0641E-01   1.08915E-02
 TDDFPT|    137       6.14959   1.2079E-04 -2.3228E-04  8.7417E-05   1.14784E-08
 TDDFPT|    138       6.15171  -2.0069E-01  6.3270E-05 -1.1275E-01   7.98611E-03
 TDDFPT|    139       6.15527   6.3743E-04  3.4616E-05  4.0595E-04   8.63053E-08
 TDDFPT|    140       6.15865  -5.6531E-05 -1.7511E-01 -2.5324E-05   4.62651E-03
 TDDFPT|    141       6.18309  -1.1647E-06  1.6952E-01  1.5135E-05   4.35311E-03
 TDDFPT|    142       6.18524  -4.5134E-04  6.5855E-05 -2.3773E-04   4.00898E-08
 TDDFPT|    143       6.18557   1.6253E-02  4.5687E-05  1.0048E-02   5.53311E-05
 TDDFPT|    144       6.18819   1.6540E-05  2.6557E-04 -2.3439E-05   1.08175E-08
 TDDFPT|    145       6.18875   2.6399E-05 -7.8246E-05  3.5813E-05   1.22843E-09
 TDDFPT|    146       6.19426  -4.1570E-07 -6.8744E-02  1.7097E-05   7.17163E-04
 TDDFPT|    147       6.22180   7.1328E-02 -2.1859E-06 -9.0918E-01   1.26777E-01
 TDDFPT|    148       6.23828   1.1418E-04 -2.3498E-06 -6.0540E-04   5.80092E-08
 TDDFPT|    149       6.27843   2.2004E-01 -2.1658E-05 -5.4814E-02   7.90985E-03
 TDDFPT|    150       6.29733   2.6947E-04 -6.7823E-05  7.0168E-05   1.26724E-08
 TDDFPT|    151       6.29948  -1.0070E-05 -4.4251E-05 -6.7973E-05   1.03095E-09
 TDDFPT|    152       6.30935   2.0924E-05 -8.2936E-01  4.6408E-06   1.06323E-01
 TDDFPT|    153       6.31664  -4.9504E-03  1.2951E-03  1.1103E-03   4.24290E-06
 TDDFPT|    154       6.31707   5.4455E-03 -1.7031E-03 -1.2334E-03   5.27372E-06
 TDDFPT|    155       6.31774   3.3537E-03 -7.1418E-02 -5.8352E-04   7.91272E-04
 TDDFPT|    156       6.31834   6.2996E-01  4.3635E-04 -9.6146E-02   6.28622E-02
 TDDFPT|    157       6.32220   3.6474E-03 -1.0827E-04  2.1806E-04   2.06975E-06
 TDDFPT|    158       6.32322  -1.0648E+00 -1.7353E-05 -1.6549E-01   1.79880E-01
 TDDFPT|    159       6.32678  -7.1972E-04  2.2096E-04 -8.3216E-06   8.78691E-08
 TDDFPT|    160       6.32684  -9.2145E-04  2.7956E-04  3.6414E-06   1.43725E-07
 TDDFPT|    161       6.32821   1.4989E-02  7.3895E-02 -1.3860E-03   8.81711E-04
 TDDFPT|    162       6.32827   1.4351E-01 -7.6393E-03 -1.3644E-02   3.23095E-03
 TDDFPT|    163       6.33579  -7.6205E-05 -1.6843E-01 -6.3396E-05   4.40357E-03
 TDDFPT|    164       6.33580  -2.0906E-04  3.4308E-01 -6.7813E-05   1.82709E-02
 TDDFPT|    165       6.38197  -9.4852E-05  2.3406E-04  1.2229E-05   9.99600E-09
 TDDFPT|    166       6.39069   5.1340E-05 -2.1005E-01  1.6156E-05   6.90826E-03
 TDDFPT|    167       6.39109  -1.6203E-05 -2.0986E-03  1.6198E-04   6.93735E-07
 TDDFPT|    168       6.39469  -5.0772E-05  3.6751E-04  2.5170E-06   2.15643E-08
 TDDFPT|    169       6.39536   1.0631E-02  2.1411E-04  8.6591E-02   1.19252E-03
 TDDFPT|    170       6.40145  -3.7796E-04 -5.0393E-05  1.9561E-05   2.28624E-08
 TDDFPT|    171       6.40372  -1.0402E-03  6.3508E-05  7.3467E-06   1.70410E-07
 TDDFPT|    172       6.40586  -2.1788E-01 -1.6234E-04  5.7571E-02   7.97061E-03
 TDDFPT|    173       6.42073   6.0436E-05  4.3546E-01  3.1516E-06   2.98285E-02
 TDDFPT|    174       6.42469  -2.3129E-05  4.1867E-04  2.0192E-05   2.77383E-08
 TDDFPT|    175       6.43003   1.9301E-04 -6.2692E-01  8.8427E-05   6.19142E-02
 TDDFPT|    176       6.43882   7.2801E-01  1.3554E-04  4.4594E-01   1.14977E-01
 TDDFPT|    177       6.44896   2.0412E-03 -2.0670E-05  3.8650E-04   6.81968E-07
 TDDFPT|    178       6.44948  -7.6360E-01 -7.1379E-06 -1.1673E-01   9.42849E-02
 TDDFPT|    179       6.46092   2.3232E-04 -2.7217E-05  7.3985E-05   9.52727E-09
 TDDFPT|    180       6.47190   1.5227E-04 -1.5128E-05  2.6701E-05   3.82580E-09
 TDDFPT|    181       6.48484  -4.9187E-04  4.9656E-05 -3.9233E-04   6.32835E-08
 TDDFPT|    182       6.48649  -1.0534E-01  5.9702E-05 -7.1848E-02   2.58377E-03
 TDDFPT|    183       6.49174  -1.3503E-05 -2.0902E-03  3.4824E-05   6.95076E-07
 TDDFPT|    184       6.49702  -8.1036E-04 -8.4088E-02  2.2971E-04   1.12559E-03
 TDDFPT|    185       6.49711  -4.2800E-02  1.6164E-03  1.2390E-02   3.16440E-04
 TDDFPT|    186       6.49785   8.9255E-05  2.4959E-04 -7.5957E-05   1.21037E-08
 TDDFPT|    187       6.50014  -1.7775E-04 -3.6425E-04  7.9577E-05   2.71689E-08
 TDDFPT|    188       6.50020  -1.4989E-04 -3.3794E-04  5.2060E-05   2.21962E-08
 TDDFPT|    189       6.50767   1.8071E-01 -1.8227E-04 -1.3077E-01   7.93285E-03
 TDDFPT|    190       6.51001  -8.5157E-05 -4.4767E-01  4.8564E-05   3.19636E-02
 TDDFPT|    191       6.51286   1.5112E-04  2.9274E-04 -8.3161E-05   1.84215E-08
 TDDFPT|    192       6.51390  -8.5453E-05 -3.7089E-04  3.9387E-05   2.33662E-08
 TDDFPT|    193       6.51443  -3.3639E-04 -1.3539E-04  1.3274E-04   2.37981E-08
 TDDFPT|    194       6.51685   3.5091E-03  3.6555E-02 -1.2822E-03   2.15580E-04
 TDDFPT|    195       6.51686  -8.9377E-02  1.4151E-03  3.2658E-02   1.44601E-03
 TDDFPT|    196       6.52988   1.1828E-01 -8.5680E-06  6.0431E-02   2.82251E-03
 TDDFPT|    197       6.53577   2.5549E-04 -9.2264E-03 -4.6806E-04   1.36762E-05
 TDDFPT|    198       6.53838  -2.5263E-01 -4.3246E-06  3.6778E-01   3.18907E-02
 TDDFPT|    199       6.54527  -5.7898E-05 -1.2006E-05  7.9842E-05   1.58288E-09
 TDDFPT|    200       6.54744   6.4020E-05 -2.5302E-05 -1.1519E-04   2.88870E-09

 TDDFPT : CheckSum  =  0.300900E+01
 
 -------------------------------------------------------------------------------
 -                            Excitation analysis                              -
 -------------------------------------------------------------------------------
        State             Occupied              Virtual             Excitation
        number             orbital              orbital             amplitude
 -------------------------------------------------------------------------------
             1   4.59607 eV
                               280                  281              -0.899598
                               278                  283               0.416649
                               277                  284              -0.061543
                               275                  282               0.056959
                               272                  284               0.045623
                               279                  282               0.040726
                               273                  281               0.032784
                               274                  283               0.018853
                               276                  281               0.017200
                               270                  283               0.016578
                               269                  284              -0.014539
                               279                  298              -0.013109
                               265                  282               0.012704
             2   4.59734 eV
                               280                  283               0.895222
                               278                  281              -0.428260
                               277                  282               0.050929
                               275                  284              -0.047462
                               272                  282              -0.041276
                               279                  286              -0.023264
                               273                  283              -0.022860
                               280                  285               0.022568
                               270                  281              -0.020352
                               278                  287              -0.019427
                               273                  285               0.019020
                               274                  281              -0.017085
                               270                  287               0.016330
                               264                  286               0.013665
                               269                  282               0.012157
                               273                  292               0.011884
                               279                  294              -0.011480
                               276                  283              -0.010900
                               261                  283              -0.010806
                               279                  290              -0.010751
             3   4.60905 eV
                               280                  282              -0.758397
                               279                  281               0.471334
                               278                  284               0.327825
                               277                  283              -0.292047
                               272                  283               0.049349
                               275                  281               0.042338
                               273                  282               0.034476
                               274                  284               0.033196
                               270                  284               0.022417
                               271                  287              -0.015736
                               265                  281               0.015125
                               277                  285              -0.012734
                               276                  282              -0.012326
                               269                  285               0.012237
                               279                  287               0.010740
                               279                  291              -0.010621
                               279                  299              -0.010141
             4   4.61104 eV
                               280                  284              -0.848477
                               278                  282               0.419780
                               279                  283               0.245471
                               277                  281              -0.182588
                               272                  281               0.049803
                               275                  283               0.042488
                               274                  282               0.030723
                               273                  284               0.027711
                               270                  282               0.021735
                               279                  292              -0.017100
                               271                  283              -0.015715
                               265                  283               0.015699
                               271                  285              -0.012758
                               275                  285              -0.010105
             5   4.63034 eV
                               279                  282              -0.907501
                               277                  284               0.395651
                               280                  281              -0.081222
                               276                  281               0.064990
                               274                  283              -0.044575
                               278                  283              -0.035187
                               271                  282              -0.020260
                               270                  283              -0.017921
                               275                  282               0.016467
                               267                  281              -0.015303
                               273                  287               0.012154
                               269                  286               0.011205
                               280                  299              -0.010857
                               278                  285              -0.010501
                               263                  290               0.010235
                               280                  291              -0.010219
             6   4.63168 eV
                               279                  283              -0.863909
                               277                  281               0.377455
                               280                  284              -0.304965
                               271                  283              -0.048479
                               278                  282               0.045826
                               276                  284               0.044231
                               274                  282              -0.032384
                               269                  281               0.031159
                               280                  286               0.025920
                               267                  284              -0.023388
                               279                  285              -0.019534
                               268                  282              -0.019166
                               273                  286              -0.017627
                               280                  290               0.016271
                               266                  281               0.014916
                               258                  290              -0.013672
                               280                  294               0.013286
                               264                  283               0.013113
                               261                  284               0.012433
                               257                  289              -0.012374
                               250                  283               0.012173
                               271                  292               0.011663
                               276                  290               0.011279
                               252                  284              -0.011070
                               278                  289              -0.010999
                               279                  292              -0.010981
                               264                  293              -0.010383
                               265                  285              -0.010340
                               263                  291              -0.010318
                               263                  295               0.010238
                               249                  281               0.010137
             7   4.63569 eV
                               279                  284               0.885002
                               277                  282              -0.446136
                               276                  283              -0.054045
                               278                  281               0.048711
                               274                  281               0.047771
                               280                  283               0.047249
                               280                  285               0.024234
                               279                  286              -0.019890
                               271                  286               0.019390
                               269                  288               0.018607
                               272                  282               0.018407
                               280                  292               0.017148
                               270                  281               0.015141
                               277                  288              -0.014796
                               265                  284               0.013044
                               280                  297              -0.011884
                               273                  283               0.010760
                               271                  290               0.010225
             8   4.65496 eV
                               279                  281               0.786223
                               280                  282               0.547687
                               277                  283              -0.204482
                               271                  281               0.096497
                               276                  282              -0.085360
                               274                  284               0.050947
                               269                  283              -0.041857
                               273                  282              -0.041263
                               267                  282               0.039229
                               275                  281              -0.035946
                               277                  285               0.034235
                               268                  284               0.033218
                               278                  286              -0.033078
                               272                  283              -0.030226
                               278                  284              -0.030015
                               266                  283              -0.027154
                               273                  288              -0.026707
                               265                  281              -0.025343
                               275                  287               0.016181
                               280                  288              -0.016011
                               279                  287              -0.015561
                               257                  290               0.015543
                               258                  289               0.014501
                               264                  291               0.012335
                               271                  287               0.012172
                               263                  292               0.011862
                               280                  298               0.011749
                               272                  293               0.011674
                               263                  293               0.011310
                               270                  286               0.011163
                               260                  285              -0.011117
                               280                  289              -0.010532
                               259                  286               0.010152
             9   4.74041 eV
                               278                  281               0.757468
                               277                  282               0.502841
                               280                  283               0.339053
                               279                  284               0.200428
                               274                  281              -0.067400
                               272                  282               0.054623
                               273                  283              -0.046695
                               271                  284               0.043046
                               270                  281               0.027324
                               277                  288               0.025602
                               278                  287               0.023304
                               273                  285              -0.022809
                               269                  282               0.019055
                               271                  286              -0.017218
                               275                  286              -0.015147
                               267                  283               0.013671
                               278                  291               0.013649
                               265                  284              -0.012325
                               263                  288               0.011261
                               272                  289               0.011071
                               277                  289              -0.010358
                               277                  298               0.010145
            10   4.74124 eV
                               278                  283               0.770739
                               277                  284               0.495234
                               280                  281               0.335206
                               279                  282               0.163092
                               274                  283              -0.079977
                               272                  284               0.074416
                               273                  281              -0.046084
                               276                  281               0.035936
                               275                  282               0.032239
                               271                  282               0.030959
                               270                  283               0.016383
                               273                  287              -0.014013
                               277                  286              -0.013824
                               269                  284               0.013623
                               279                  288               0.013546
                               278                  285               0.011562
                               277                  294              -0.011447
                               278                  292               0.011153
                               261                  281              -0.010900
                               268                  283              -0.010644
                               271                  288               0.010309
                               270                  285               0.010005
            11   4.74251 eV
                               278                  282               0.759344
                               277                  281               0.526166
                               280                  284               0.313518
                               279                  283               0.167182
                               274                  282              -0.077374
                               272                  281               0.073291
                               269                  281               0.041925
                               273                  284              -0.041196
                               270                  282               0.021370
                               277                  291               0.017076
                               276                  284               0.016647
                               278                  288               0.014303
                               278                  289              -0.013721
                               270                  288               0.013625
                               277                  287               0.012592
                               273                  286               0.011898
                               271                  283               0.011795
                               274                  289              -0.011220
                               263                  287               0.011141
                               275                  283               0.010978
                               271                  285               0.010952
                               269                  287               0.010943
                               268                  282              -0.010287
            12   4.75515 eV
                               278                  284               0.774988
                               277                  283               0.558856
                               280                  282               0.180640
                               274                  284              -0.114195
                               272                  283               0.110556
                               279                  281               0.087564
                               276                  282               0.070760
                               269                  283               0.056722
                               275                  281               0.049401
                               271                  281              -0.033498
                               268                  284              -0.029488
                               279                  287               0.028066
                               270                  284               0.025084
                               280                  288               0.024765
                               267                  282              -0.022608
                               266                  283               0.022096
                               270                  286              -0.021056
                               269                  285               0.018229
                               265                  281               0.017724
                               273                  282              -0.017120
                               277                  292               0.014943
                               278                  294              -0.012362
                               272                  285              -0.012176
                               274                  290              -0.011158
                               258                  289              -0.011023
                               257                  290              -0.011014
            13   4.79785 eV
                               277                  281              -0.727229
                               278                  282               0.479011
                               279                  283              -0.390587
                               280                  284               0.279084
                               275                  283              -0.059147
                               276                  284               0.051157
                               274                  282               0.041527
                               271                  283              -0.024654
                               277                  282               0.020654
                               273                  284              -0.018276
                               278                  281              -0.018257
[...]
 flops   252 x    32 x    57         371020511232       0.0%    100.0%      0.0%
 flops   252 x    32 x    63         410042787840       0.0%    100.0%      0.0%
 flops   287 x    32 x    57         422551137792       0.0%    100.0%      0.0%
 flops   293 x    32 x    57         431384959488       0.0%    100.0%      0.0%
 flops   304 x    32 x    57         447580299264       0.0%    100.0%      0.0%
 flops   305 x    32 x    57         449052602880       0.0%    100.0%      0.0%
 flops   287 x    32 x    63         466993175040       0.0%    100.0%      0.0%
 flops   293 x    32 x    63         476756098560       0.0%    100.0%      0.0%
 flops   304 x    32 x    63         494654791680       0.0%    100.0%      0.0%
 flops   305 x    32 x    63         496281945600       0.0%    100.0%      0.0%
 flops   350 x    32 x    57         515306265600       0.0%    100.0%      0.0%
 flops     6 x    32 x     6         525101875200       0.0%    100.0%      0.0%
 flops    17 x    17 x    17         549125931392       0.0%    100.0%      0.0%
 flops   350 x    32 x    63         569503872000       0.0%    100.0%      0.0%
 flops   389 x    32 x    57         572726106624       0.0%    100.0%      0.0%
 flops   389 x    32 x    63         632962874880       0.0%    100.0%      0.0%
 flops    17 x    24 x    17         699695689728       0.0%    100.0%      0.0%
 flops     6 x    32 x    17        1983718195200       0.0%    100.0%      0.0%
 flops    17 x    32 x     6        1983718195200       0.0%    100.0%      0.0%
 flops    17 x    32 x    17        7494046515200       0.0%    100.0%      0.0%
 flops inhomo. stacks              11901426402378     100.0%      0.0%      0.0%
 flops total                        41.273028E+12      28.8%     71.2%      0.0%
 flops max/rank                      1.156519E+12      33.9%     66.1%      0.0%
 matmuls inhomo. stacks                   7743778     100.0%      0.0%      0.0%
 matmuls total                         1734455876       0.4%     99.6%      0.0%
 number of processed stacks              72688583      10.7%     89.3%      0.0%
 average stack size                                     1.0      26.6       0.0
 marketing flops                    37.134807E+12
 -------------------------------------------------------------------------------
 # multiplications                          15148
 max memory usage/rank               1.729180E+09
 # max total images/rank                       11
 # max 3D layers                                1
 # MPI messages exchanged                99976800
 MPI messages size (bytes):
  total size                        10.399084E+12
  min size                           0.000000E+00
  max size                         365.264000E+03
  average size                     104.014969E+03
 MPI breakdown and total messages size (bytes):
             size <=      128            46791813                   303024
       128 < size <=     8192             1243458               3475194288
      8192 < size <=    32768            12475278             191351681952
     32768 < size <=   131072             1322103             131714298336
    131072 < size <=  4194304            38144148           10070187730848
   4194304 < size <= 16777216                   0                        0
  16777216 < size                               0                        0
 -------------------------------------------------------------------------------

 *** WARNING in dbcsr_mm.F:291 :: Using a non-square number of MPI ranks ***
 *** might lead to poor performance. Used ranks: 88 Suggested: 81 169    ***

 -------------------------------------------------------------------------------
 -                                                                             -
 -                      DBCSR MESSAGE PASSING PERFORMANCE                      -
 -                                                                             -
 -------------------------------------------------------------------------------
 ROUTINE             CALLS      AVE VOLUME [Bytes]
 MP_Bcast              241                     12.
 MP_Allreduce        67904                      8.
 MP_Alltoall        267027                  64860.
 MP_ISend          2456286                  52040.
 MP_IRecv          2495356                  50424.
 -------------------------------------------------------------------------------

 -------------------------------------------------------------------------------
 -                                                                             -
 -                                DBM STATISTICS                               -
 -                                                                             -
 -------------------------------------------------------------------------------
    M  x    N  x    K                                          COUNT     PERCENT
 -------------------------------------------------------------------------------

 -------------------------------------------------------------------------------
 -                                                                             -
 -                                GRID STATISTICS                              -
 -                                                                             -
 -------------------------------------------------------------------------------
 LP    KERNEL             BACKEND                              COUNT     PERCENT
 3     collocate general  CPU                                 433356      18.57%
 4     collocate general  CPU                                 403034      17.27%
 3     integrate general  CPU                                 229316       9.82%
 2     collocate general  CPU                                 204160       8.75%
 4     integrate general  CPU                                 202644       8.68%
 1     collocate general  CPU                                 198716       8.51%
 1     integrate general  CPU                                 197876       8.48%
 0     collocate general  CPU                                 164360       7.04%
 2     integrate general  CPU                                 153506       6.58%
 0     integrate general  CPU                                 147112       6.30%
 -------------------------------------------------------------------------------

 MEMORY| Estimated peak process memory [MiB]                                1650

 -------------------------------------------------------------------------------
 -                                                                             -
 -                         MESSAGE PASSING PERFORMANCE                         -
 -                                                                             -
 -------------------------------------------------------------------------------

 ROUTINE             CALLS      AVE VOLUME [Bytes]
 MP_Group                5
 MP_Bcast             1986                4681012.
 MP_Allreduce       769479                     79.
 MP_Sync               108
 MP_Alltoall          2898                 531224.
 MP_SendRecv           870                  13200.
 MP_ISendRecv          696                  87684.
 MP_Wait             70128
 MP_comm_split          95
 MP_ISend            42313                  14209.
 MP_IRecv            60943                   9860.
 MP_Write_All            2                  71100.
 -------------------------------------------------------------------------------


 -------------------------------------------------------------------------------
 -                                                                             -
 -                           R E F E R E N C E S                               -
 -                                                                             -
 -------------------------------------------------------------------------------
 
 CP2K version 2023.2, the CP2K developers group (2023).
 CP2K is freely available from https://www.cp2k.org/ .

 Kuehne,Thomas D.; Iannuzzi,Marcella; Del Ben,Mauro;
 Rybkin,Vladimir V.; Seewald,Patrick; Stein,Frederick; Laino,Teodoro;
 Khaliullin,Rustam Z.; Schuett,Ole; Schiffmann,Florian; Golze,Dorothea;
 Wilhelm,Jan; Chulkov,Sergey; Bani-Hashemian,Mohammad Hossein;
 Weber,Valery; Borstnik,Urban; Taillefumier,Mathieu;
 Jakobovits,Alice Shoshana; Lazzaro,Alfio; Pabst,Hans; Mueller,Tiziano;
 Schade,Robert; Guidon,Manuel; Andermatt,Samuel; Holmberg,Nico;
 Schenter,Gregory K.; Hehn,Anna; Bussy,Augustin; Belleflamme,Fabian;
 Tabacchi,Gloria; Gloess,Andreas; Lass,Michael; Bethune,Iain;
 Mundy,Christopher J.; Plessl,Christian; Watkins,Matt;
 VandeVondele,Joost; Krack,Matthias; Hutter,Juerg. 
 The Journal of Chemical Physics, 152 (19), (2020). 
 CP2K: An electronic structure and molecular dynamics software package -
 Quickstep: Efficient and accurate electronic structure calculations.
 https://doi.org/10.1063/5.0007045

 Lehtola, S; Steigemann, C; Oliveira, MJT; Marques, MAL. 
 SoftwareX, 7, 1-5 (2018). 
 Recent developments in libxc - A comprehensive library of functionals
 for density functional theory.
 https://doi.org/10.1016/j.softx.2017.11.002

 Goerigk, Lars; Hansen, Andreas; Bauer, Christoph; Ehrlich, Stephan;
 Najibi, Asim; Grimme, Stefan. , 19 (48), (2017). 
 A look at the density functional theory zoo with the advanced GMTKN55 database
 for general main group thermochemistry, kinetics and noncovalent interactions.
 https://doi.org/10.1039/C7CP04913G

 Grimme, S; Bannwarth, C. 
 The Journal of Chemical Physics, 145, 054103 (2016). 
 Ultra-fast computation of electronic spectra for large systems
 by tight-binding based simplified Tamm-Dancoff approximation (sTDA-xTB).
 https://doi.org/10.1063/1.4959605

 Schuett, Ole; Messmer, Peter; Hutter, Juerg; VandeVondele, Joost. 
 Electronic Structure Calculations on Graphics Processing Units, John
 Wiley & Sons, Ltd, 173-190 (2016). 
 GPU-Accelerated Sparse Matrix-Matrix Multiplication for
 Linear Scaling Density Functional Theory.
 https://doi.org/10.1002/9781118670712.ch8

 Heinecke, A; Henry, G; Hutchinson, M; Pabst, H. 
 Proceedings of Intl. Supercomputing Conference, 981-991 (2016). 
 LIBXSMM: Accelerating Small Matrix Multiplications
 by Runtime Code Generation.
 https://doi.org/10.1109/SC.2016.83

 Borstnik, U; VandeVondele, J; Weber, V; Hutter, J. 
 PARALLEL COMPUTING, 40 (5-6), 47-58 (2014). 
 Sparse matrix multiplication: The distributed block-compressed sparse
 row library.
 https://doi.org/10.1016/j.parco.2014.03.012

 Hutter, J; Iannuzzi, M; Schiffmann, F; VandeVondele, J. 
 WIREs Comput Mol Sci., 4 (1), 15-25 (2014). 
 CP2K: atomistic simulations of condensed matter systems.
 https://doi.org/10.1002/wcms.1159

 Grimme, S. The Journal of Chemical Physics, 138, 244104 (2013). 
 A simplified Tamm-Dancoff density functional approach for
 the electronic excitation spectra of very large molecules.
 https://doi.org/10.1063/1.4811331

 Marques, MAL; Oliveira, MJT; Burnus, T. 
 COMPUTER PHYSICS COMMUNICATIONS, 183 (10), 2272-2281 (2012). 
 LIBXC: A library of exchange and correlation functionals for density
 functional theory.
 https://doi.org/10.1016/j.cpc.2012.05.007

 Grimme, S; Ehrlich, S; Goerigk, L. 
 JOURNAL OF COMPUTATIONAL CHEMISTRY, 32, 1456 (2011). 
 Effect of the damping function in dispersion corrected density functional theory.
 https://doi.org/10.1002/jcc.21759

 Guidon, M; Hutter, J; VandeVondele, J. 
 JOURNAL OF CHEMICAL THEORY AND COMPUTATION, 6 (8), 2348-2364 (2010). 
 Auxiliary Density Matrix Methods for Hartree-Fock Exchange Calculations.
 https://doi.org/10.1021/ct1002225

 Grimme, S; Antony, J; Ehrlich, S; Krieg, H. 
 JOURNAL OF CHEMICAL PHYSICS, 132 (15), 154104 (2010). 
 A consistent and accurate ab initio parametrization of density
 functional dispersion correction (DFT-D) for the 94 elements H-Pu.
 https://doi.org/10.1063/1.3382344

 Guidon, M; Hutter, J; VandeVondele, J. 
 JOURNAL OF CHEMICAL THEORY AND COMPUTATION, 5 (11), 3010-3021 (2009). 
 Robust Periodic Hartree-Fock Exchange for Large-Scale Simulations Using
 Gaussian Basis Sets.
 https://doi.org/10.1021/ct900494g

 Guidon, M; Schiffmann, F; Hutter, J; VandeVondele, J. 
 JOURNAL OF CHEMICAL PHYSICS, 128 (21), 214104 (2008). 
 Ab initio molecular dynamics using hybrid density functionals.
 https://doi.org/10.1063/1.2931945

 VandeVondele, J; Hutter, J. 
 JOURNAL OF CHEMICAL PHYSICS, 127 (11), 114105 (2007). 
 Gaussian basis sets for accurate calculations on molecular systems in
 gas and condensed phases.
 https://doi.org/10.1063/1.2770708

 Krack, M. 
 THEORETICAL CHEMISTRY ACCOUNTS, 114 (1-3), 145-152 (2005). 
 Pseudopotentials for H to Kr optimized for gradient-corrected
 exchange-correlation functionals.
 https://doi.org/10.1007/s00214-005-0655-y

 VandeVondele, J; Krack, M; Mohamed, F; Parrinello, M; Chassaing, T;
 Hutter, J. COMPUTER PHYSICS COMMUNICATIONS, 167 (2), 103-128 (2005). 
 QUICKSTEP: Fast and accurate density functional calculations using a
 mixed Gaussian and plane waves approach.
 https://doi.org/10.1016/j.cpc.2004.12.014

 Frigo, M; Johnson, SG. 
 PROCEEDINGS OF THE IEEE, 93 (2), 216-231 (2005). 
 The design and implementation of FFTW3.
 https://doi.org/10.1109/JPROC.2004.840301

 Iannuzzi, M; Chassaing, T; Wallman, T; Hutter, J. 
 CHIMIA, 59 (7-8), 499-503 (2005). 
 Ground and excited state density functional calculations with the
 Gaussian and augmented-plane-wave method.
 https://doi.org/10.2533/000942905777676164

 VandeVondele, J; Hutter, J. 
 JOURNAL OF CHEMICAL PHYSICS, 118 (10), 4365-4369 (2003). 
 An efficient orbital transformation method for electronic structure
 calculations.
 https://doi.org/10.1063/1.1543154

 Hartwigsen, C; Goedecker, S; Hutter, J. 
 PHYSICAL REVIEW B, 58 (7), 3641-3662 (1998). 
 Relativistic separable dual-space Gaussian pseudopotentials from H to Rn.
 https://doi.org/10.1103/PhysRevB.58.3641

 Lippert, G; Hutter, J; Parrinello, M. 
 MOLECULAR PHYSICS, 92 (3), 477-487 (1997). 
 A hybrid Gaussian and plane wave density functional scheme.
 https://doi.org/10.1080/002689797170220

 Perdew, JP; Burke, K; Ernzerhof, M. 
 PHYSICAL REVIEW LETTERS, 77 (18), 3865-3868 (1996). 
 Generalized gradient approximation made simple.
 https://doi.org/10.1103/PhysRevLett.77.3865

 Goedecker, S; Teter, M; Hutter, J. 
 PHYSICAL REVIEW B, 54 (3), 1703-1710 (1996). 
 Separable dual-space Gaussian pseudopotentials.
 https://doi.org/10.1103/PhysRevB.54.1703


 -------------------------------------------------------------------------------
 -                                                                             -
 -                                T I M I N G                                  -
 -                                                                             -
 -------------------------------------------------------------------------------
 SUBROUTINE                       CALLS  ASD         SELF TIME        TOTAL TIME
                                MAXIMUM       AVERAGE  MAXIMUM  AVERAGE  MAXIMUM
 CP2K                                 1  1.0    0.099    0.132  637.575  637.581
 qs_energies                          1  2.0    0.000    0.000  636.912  636.921
 scf_env_do_scf                       1  3.0    0.000    0.001  326.709  326.712
 init_scf_loop                        1  4.0    0.000    0.000  326.273  326.275
 qs_ks_update_qs_env                  2  5.0    0.000    0.000  324.798  324.805
 rebuild_ks_matrix                    1  6.0    0.000    0.000  324.794  324.801
 qs_ks_build_kohn_sham_matrix         1  7.0    0.001    0.002  324.794  324.801
 hfx_ks_matrix                        1  8.0    0.004    0.007  322.909  322.954
 integrate_four_center                1  9.0    0.138    0.392  322.902  322.949
 integrate_four_center_main           1 10.0    1.037    3.744  293.158  304.086
 integrate_four_center_bin           66 11.0  292.121  304.085  292.121  304.085
 qs_energies_properties               1  3.0    0.000    0.000  291.825  291.833
 tddfpt                               1  4.0    0.000    0.002  291.825  291.833
 tddfpt_energies                      1  5.0    0.000    0.001  289.028  289.033
 tddfpt_davidson_solver               2  6.0    0.006    0.007  279.489  279.491
 dbcsr_multiply_generic           15148 10.4    0.525    0.666  183.533  199.361
 cp_dbcsr_sm_fm_multiply           9612  9.4    0.111    0.121  194.630  196.739
 multiply_cannon                  15148 11.4    1.328    1.709  156.713  174.409
 cp_dbcsr_sm_fm_multiply_core      9612 10.4    0.012    0.016  159.355  174.066
 multiply_cannon_loop             15148 12.4    3.554    4.494  150.038  167.248
 tddfpt_compute_Aop_evects            7  7.0    0.000    0.000  159.059  159.077
 mp_waitall_1                   1826945 14.5  122.715  152.801  122.715  152.801
 multiply_cannon_metrocomm3      666512 13.4    0.566    0.640  116.709  146.834
 stda_kernel                          7  8.0    0.002    0.004  132.020  132.038
 stda_calculate_kernel             1400  9.0    0.277    0.319  132.018  132.035
 multiply_cannon_multrec         666512 13.4   24.767   63.285   24.830   63.337
 tddfpt_orthonormalize_psi1_psi       8  6.9    0.407    0.446   53.164   53.165
 copy_dbcsr_to_fm                  9794 10.4    0.075    0.117   28.560   43.296
 mp_alltoall_i22                  36617 12.5   26.655   42.010   26.655   42.010
 tddfpt_compute_residual_vects        5  7.0    0.034    0.038   35.864   38.605
 parallel_gemm_fm                  4832  7.9    0.003    0.004   36.144   37.641
 parallel_gemm_fm_cosma            4832  8.9   36.140   37.638   36.140   37.638
 dbcsr_desymmetrize_deep           9794 11.4    0.219    0.480   22.011   36.164
 get_lowdin_x                      1400 10.0    0.002    0.002   28.435   28.458
 tddfpt_apply_energy_diff             7  8.0    0.011    0.012   27.039   27.040
 make_m2s                         30296 11.4    0.413    0.450   20.803   21.945
 mp_sync                            108 10.7   10.978   20.816   10.978   20.816
 cp_fm_trace_a1b1t1_aa           760800  8.0    8.336    9.006   18.452   20.763
 tddfpt_compute_ritz_vects            7  7.0    0.922    3.487   18.408   19.846
 make_images                      30296 12.4    1.539    2.109   16.871   18.053
 scf_post_calculation_gpw             1  3.0    0.000    0.000   17.201   17.202
 cp_fm_scale_and_add            1643200  8.0   14.964   17.129   14.964   17.129
 integrate_four_center_load           1 10.0    0.000    0.004   16.684   16.694
 hfx_load_balance                     1 11.0    0.001    0.001   16.684   16.694
 make_lumo_gpw                        1  4.0    0.000    0.000   16.461   16.462
 ot_eigensolver                       1  5.0    0.002    0.004   16.440   16.440
 dbcsr_complete_redistribute      26574 11.5    1.746    3.028   12.712   15.761
 tddfpt_orthogonalize_psi1_psi0       8  6.9    0.002    0.002   14.265   15.693
 mp_sum_dv                       763141  9.0   10.191   15.273   10.191   15.273
 -------------------------------------------------------------------------------

 The number of warnings for this run is : 1
 
 -------------------------------------------------------------------------------
  **** **** ******  **  PROGRAM ENDED AT                 2023-12-26 16:27:53.323
 ***** ** ***  *** **   PROGRAM RAN ON                              3cde33015ee8
 **    ****   ******    PROGRAM RAN BY                                 <unknown>
 ***** **    ** ** **   PROGRAM PROCESS ID                                   538
  **** **  *******  **  PROGRAM STOPPED IN                                  /mnt
