 DBCSR| CPU Multiplication driver                                           XSMM (U)
 DBCSR| Multrec recursion limit                                              512 (U)
 DBCSR| Multiplication stack size                                           1000 (D)
 DBCSR| Maximum elements for images                                    UNLIMITED (U)
 DBCSR| Multiplicative factor virtual images                                   1 (U)
 DBCSR| Use multiplication densification                                       T (D)
 DBCSR| Multiplication size stacks                                             3 (U)
 DBCSR| Use memory pool for CPU allocation                                     F (U)
 DBCSR| Number of 3D layers                                               SINGLE (U)
 DBCSR| Use MPI memory allocation                                              F (U)
 DBCSR| Use RMA algorithm                                                      F (U)
 DBCSR| Use Communication thread                                               T (U)
 DBCSR| Communication thread load                                             83 (D)
 DBCSR| MPI: My process id                                                     0
 DBCSR| MPI: Number of processes                                              88
 DBCSR| OMP: Current number of threads                                         2
 DBCSR| OMP: Max number of threads                                             2
 DBCSR| Split modifier for TAS multiplication algorithm                  1.0E+00 (U)


  **** **** ******  **  PROGRAM STARTED AT               2023-12-26 15:54:11.881
 ***** ** ***  *** **   PROGRAM STARTED ON                          ce897d79c871
 **    ****   ******    PROGRAM STARTED BY                             <unknown>
 ***** **    ** ** **   PROGRAM PROCESS ID                                   538
  **** **  *******  **  PROGRAM STARTED IN                                  /mnt

 CP2K| version string:                                       CP2K version 2023.2
 CP2K| source code revision number:                                  git:65cca6c
 CP2K| cp2kflags: omp libint fftw3 libxc pexsi elpa parallel scalapack cosma qui
 CP2K|            p xsmm plumed2 spglib sirius libvori libbqb libtorch libvdwxc
 CP2K| is freely available from                            https://www.cp2k.org/
 CP2K| Program compiled at                          Wed Oct 18 11:40:41 UTC 2023
 CP2K| Program compiled on                                          633bb7bf566f
 CP2K| Program compiled for                                                local
 CP2K| Data directory path                                        /opt/cp2k/data
 CP2K| Input file name                                          mo_4AMP15_0m.inp

 GLOBAL| Force Environment number                                              1
 GLOBAL| Basis set file name                                      GTH_BASIS_SETS
 GLOBAL| Potential file name                                           POTENTIAL
 GLOBAL| MM Potential file name                                     MM_POTENTIAL
 GLOBAL| Coordinate file name                                      __STD_INPUT__
 GLOBAL| Method name                                                        CP2K
 GLOBAL| Project name                                               mo_4AMP15_0m
 GLOBAL| Run type                                                         ENERGY
 GLOBAL| FFT library                                                       FFTW3
 GLOBAL| Diagonalization library                                            ELPA
 GLOBAL| DGEMM library                                                      BLAS
 GLOBAL| Minimum number of eigenvectors for ELPA usage                        16
 GLOBAL| Orthonormality check for eigenvectors                          DISABLED
 GLOBAL| Matrix multiplication library                                     COSMA
 GLOBAL| All-to-all communication in single precision                          F
 GLOBAL| FFTs using library dependent lengths                                  F
 GLOBAL| Grid backend                                                       AUTO
 GLOBAL| Global print level                                                  LOW
 GLOBAL| MPI I/O enabled                                                       T
 GLOBAL| Total number of message passing processes                            88
 GLOBAL| Number of threads for this process                                    2
 GLOBAL| This output is from process                                           0
 GLOBAL| Stack size for threads created by OpenMP (OMP_STACKSIZE)            16M
 GLOBAL| CPU model name                         AMD EPYC 9V33X 96-Core Processor
 GLOBAL| CPUID                                                              1003
 GLOBAL| Compiled for CPUID                                                    0

 *** HINT in environment.F:904 :: The compiler target flags (generic) used ***
 *** to build this binary cannot exploit all extensions of this CPU model  ***
 *** (x86_avx512). Consider compiler target flags as part of FCFLAGS and   ***
 *** CFLAGS (ARCH file).                                                   ***


 MEMORY| system memory details [Kb]
 MEMORY|                        rank 0           min           max       average
 MEMORY| MemTotal           1444892880    1444892880    1444892880    1444892880
 MEMORY| MemFree            1424247248    1424247248    1424247248    1424247248
 MEMORY| Buffers                 35280         35280         35280         35280
 MEMORY| Cached                1209992       1209980       1209992       1209980
 MEMORY| Slab                  1083356       1083356       1083356       1083356
 MEMORY| SReclaimable           133260        133260        133260        133260
 MEMORY| MemLikelyFree      1425625780    1425625768    1425625780    1425625768


 GENERATE|  Preliminary Number of Bonds generated:                             0
 GENERATE|  Achieved consistency in connectivity generation.

 *******************************************************************************
 *******************************************************************************
 **                                                                           **
 **     #####                         ##              ##                      **
 **    ##   ##            ##          ##              ##                      **
 **   ##     ##                       ##            ######                    **
 **   ##     ##  ##   ##  ##   #####  ##  ##   ####   ##    #####    #####    **
 **   ##     ##  ##   ##  ##  ##      ## ##   ##      ##   ##   ##  ##   ##   **
 **   ##  ## ##  ##   ##  ##  ##      ####     ###    ##   ######   ######    **
 **    ##  ###   ##   ##  ##  ##      ## ##      ##   ##   ##       ##        **
 **     #######   #####   ##   #####  ##  ##  ####    ##    #####   ##        **
 **           ##                                                    ##        **
 **                                                                           **
 **                                                ... make the atoms dance   **
 **                                                                           **
 **            Copyright (C) by CP2K developers group (2000-2023)             **
 **                      J. Chem. Phys. 152, 194103 (2020)                    **
 **                                                                           **
 *******************************************************************************


 TOTAL NUMBERS AND MAXIMUM NUMBERS

  Total number of            - Atomic kinds:                                   4
                             - Atoms:                                        196
                             - Shell sets:                                   392
                             - Shells:                                      1120
                             - Primitive Cartesian functions:               1176
                             - Cartesian basis functions:                   2520
                             - Spherical basis functions:                   2408

  Maximum angular momentum of- Orbital basis functions:                        2
                             - Local part of the GTH pseudopotential:          2
                             - Non-local part of the GTH pseudopotential:      0


 SCF PARAMETERS         Density guess:                                   RESTART
                        --------------------------------------------------------
                        max_scf:                                             128
                        max_scf_history:                                       0
                        max_diis:                                              4
                        --------------------------------------------------------
                        eps_scf:                                        1.00E-06
                        eps_scf_history:                                0.00E+00
                        eps_diis:                                       1.00E-01
                        eps_eigval:                                     1.00E-05
                        --------------------------------------------------------
                        level_shift [a.u.]:                             0.000000
                        added MOs                                        30    0
                        --------------------------------------------------------
                        Mixing method:                            BROYDEN_MIXING
                                                charge density mixing in g-space
                        --------------------------------------------------------
                        No outer SCF

 Number of electrons:                                                        560
 Number of occupied orbitals:                                                280
 Number of molecular orbitals:                                               310

 Number of orbital functions:                                               2408
 Number of independent orbital functions:                                   2408

 Extrapolation method: initial_guess


 SCF WAVEFUNCTION OPTIMIZATION

  Step     Update method      Time    Convergence         Total energy    Change
  ------------------------------------------------------------------------------

 *** WARNING in fm/cp_fm_elpa.F:522 :: Setting real_kernel for ELPA failed ***

     1 NoMix/Diag. 0.40E+00    1.0     0.00000138      -825.7787443296 -8.26E+02

 *** WARNING in fm/cp_fm_elpa.F:522 :: Setting real_kernel for ELPA failed ***

     2 Broy./Diag. 0.40E+00    1.3     0.00000029      -825.7787443454 -1.57E-08

  *** SCF run converged in     2 steps ***


  Electronic density on regular grids:       -559.9999999679        0.0000000321
  Core density on regular grids:              559.9999999996       -0.0000000004
  Total charge density on r-space grids:        0.0000000317
  Total charge density g-space grids:           0.0000000317

  Overlap energy of the core charge distribution:               0.00133221693382
  Self energy of the core charge distribution:              -1996.35753382145731
  Core Hamiltonian energy:                                    642.02425836923851
  Hartree energy:                                             785.55998834043476
  Exchange-correlation energy:                               -257.00678945054347

  Total energy:                                              -825.77874434539376
  
  Eigenvalues of the occupied subspace spin            1
 ---------------------------------------------
      -0.79050844      -0.79050593      -0.78929067      -0.78929033
      -0.78574645      -0.78573442      -0.78568570      -0.78567466
      -0.75076475      -0.75076436      -0.75075482      -0.75075479
      -0.66871786      -0.66871211      -0.66852967      -0.66852428
      -0.60102418      -0.60092286      -0.60067272      -0.60050684
      -0.59902295      -0.59876810      -0.59857137      -0.59839152
      -0.58732763      -0.58691351      -0.58665020      -0.58625683
      -0.54014570      -0.54011817      -0.53979337      -0.53978489
      -0.51216630      -0.51183827      -0.51158065      -0.51118250
      -0.50683112      -0.50650098      -0.50592462      -0.50583581
      -0.50283259      -0.50230022      -0.50190054      -0.50144152
      -0.49760122      -0.49666529      -0.49417714      -0.49339892
      -0.48823284      -0.48758401      -0.48751382      -0.48698491
      -0.47592121      -0.47544263      -0.47532591      -0.47497543
      -0.45215729      -0.45167693      -0.45094526      -0.45025355
      -0.44688454      -0.44640962      -0.44557304      -0.44534580
      -0.41345523      -0.41333795      -0.41306781      -0.41299410
      -0.39285394      -0.39279005      -0.39198303      -0.39192235
      -0.37097114      -0.37096231      -0.37088877      -0.37079199
      -0.36801029      -0.36729451      -0.36670205      -0.36611961
      -0.36581043      -0.36476094      -0.36462150      -0.36447002
      -0.35727570      -0.35693498      -0.35662494      -0.35620354
      -0.33187302      -0.33109846      -0.33045001      -0.32916769
      -0.32247930      -0.32181016      -0.32033649      -0.31957436
      -0.31185523      -0.31175933      -0.30776411      -0.30714390
      -0.29655595      -0.29554034      -0.29385830      -0.29356166
      -0.29173363      -0.29149438      -0.29140386      -0.29076502
      -0.28442146      -0.28422581      -0.28034851      -0.28019664
      -0.26127905      -0.26093264      -0.26020162      -0.25956867
      -0.25400918      -0.25362888      -0.25235595      -0.25086934
      -0.25059244      -0.24991435      -0.24947390      -0.24921570
      -0.23905335      -0.23851282      -0.23651998      -0.23539732
      -0.23492982      -0.23464364      -0.23330830      -0.23324886
      -0.23283914      -0.23152014      -0.23026946      -0.22888036
      -0.22584182      -0.22577277      -0.22552017      -0.22546106
      -0.22518060      -0.22477975      -0.22463625      -0.22390651
      -0.21635761      -0.21608335      -0.21491282      -0.21397378
      -0.20955136      -0.20938732      -0.20718244      -0.20693103
      -0.19733485      -0.19656603      -0.19625500      -0.19623976
      -0.19409940      -0.19145032      -0.19095059      -0.19003820
      -0.18939018      -0.18730555      -0.18634853      -0.18601501
      -0.18587482      -0.18474236      -0.18433083      -0.18184083
      -0.18181984      -0.18002771      -0.17834124      -0.17786863
      -0.17328952      -0.17325232      -0.17146647      -0.17137870
      -0.16798213      -0.16774851      -0.16662055      -0.16593803
      -0.16425063      -0.16403620      -0.16391602      -0.16389123
      -0.15850923      -0.15838527      -0.15821925      -0.15767103
      -0.15523009      -0.15368062      -0.15077701      -0.14954188
      -0.14889307      -0.14845280      -0.14820986      -0.14609647
      -0.14504777      -0.14499189      -0.14319268      -0.14256846
      -0.13390649      -0.13322909      -0.13319403      -0.13285297
      -0.12619496      -0.12604945      -0.12436664      -0.12332360
      -0.12175370      -0.11991256      -0.11945138      -0.11802814
      -0.11791420      -0.11788548      -0.11723084      -0.11714865
      -0.11605017      -0.11586710      -0.11487064      -0.11478514
      -0.11245044      -0.11110392      -0.10914377      -0.10909120
      -0.10014297      -0.10014161      -0.09785085      -0.09713856
      -0.09450640      -0.09385513      -0.09283115      -0.09246408
      -0.08671048      -0.08661020      -0.08655575      -0.08637738
      -0.07979863      -0.07953573      -0.07652262      -0.07459555
      -0.07392057      -0.07243650      -0.06850698      -0.06842841
      -0.05613400      -0.05575365      -0.05438391      -0.05424974
      -0.04999284      -0.04987721      -0.04832215      -0.04814812
      -0.03196210      -0.03186497      -0.02449634      -0.02439324
      -0.01768520      -0.01653167      -0.01626614      -0.01437070
      -0.01333542      -0.01310621      -0.01215963      -0.01066500
       0.00446730       0.00498429       0.00585069       0.00591784
       0.00609400       0.00664384       0.00737844       0.00755440
       0.00847654       0.00852475       0.00854399       0.00921717
       0.01258505       0.01276441       0.01706766       0.01727884
 Fermi Energy [eV] :    0.470181
  
  Lowest eigenvalues of the unoccupied subspace spin            1
 ---------------------------------------------
       0.11132904

 *******************************************************************************
 **                                                                           **
 **         ######## #######   #######   ######## #######  ########           **
 **            ##    ##     ## ##     ## ##       ##   ##     ##              **
 **            ##    ##     ## ##     ## ######   #######     ##              **
 **            ##    ##     ## ##     ## ##       ##          ##              **
 **            ##    #######   #######   ##       ##          ##              **
 **                                                                           **
 *******************************************************************************
 KERNEL|                                                                    sTDA
 KERNEL| Coulomb term uses Ewald summation
 KERNEL| Exact exchange term                                                 YES
 KERNEL| Short range HFX fraction:                                         0.200
 KERNEL| Transition density filter                                     0.100E-09
 KERNEL| Spin symmetry of excitations                                    Singlet
 TDDFPT| Number of states calculated                                         500
 TDDFPT| Number of Davidson iterations                                       100
 TDDFPT| Davidson iteration convergence                                0.367E-05
 TDDFPT| Max. number of Krylov space vectors                                5000

 *** WARNING in fm/cp_fm_elpa.F:522 :: Setting real_kernel for ELPA failed ***

 TDDFPT| Molecular Orbitals:        Spin       AOs       Occ      Virt     Total
 TDDFPT|                               1      2408       280      2128      2408
 sTDA| HFX Fraction                                                       0.2000
 sTDA| Mataga-Nishimoto exponent (C)                                      1.5160
 sTDA| Mataga-Nishimoto exponent (X)                                      0.5660
 sTDA| TD matrix filter                                           0.10000000E-09
 
 -------------------------------------------------------------------------------
 -                      sTDA Kernel: Create Matrix SQRT(S)                     -
 -------------------------------------------------------------------------------

     Lanczos converged:  F threshold:   0.100E-03
     Est. extremal eigenvalues:    0.150E+02   0.150E-02
     Est. condition number :    0.998E+04

 Order=           3
     NS sqrt iter    1 1.00000000   0.301E+01       0.083     6003.452
     NS sqrt iter    2 1.00000000   0.203E+01       0.108    11745.013
     NS sqrt iter    3 1.00000000   0.124E+01       0.111    11462.586
     NS sqrt iter    4 1.00000000   0.869E+00       0.110    11497.172
     NS sqrt iter    5 1.00000000   0.633E+00       0.112    11374.406
     NS sqrt iter    6 1.00000000   0.470E+00       0.110    11511.750
     NS sqrt iter    7 1.00000000   0.349E+00       0.111    11460.031
     NS sqrt iter    8 1.00000000   0.273E+00       0.113    11214.034
     NS sqrt iter    9 1.00000000   0.225E+00       0.112    11328.515
     NS sqrt iter   10 1.00000000   0.185E+00       0.113    11263.266
     NS sqrt iter   11 1.00000000   0.144E+00       0.111    11413.330
     NS sqrt iter   12 1.00000000   0.971E-01       0.112    11355.389
     NS sqrt iter   13 1.00000000   0.492E-01       0.130     9747.176
     NS sqrt iter   14 1.00000000   0.118E-01       0.106    11863.723
     NS sqrt iter   15 1.00000000   0.346E-03       0.105    10385.556
     NS sqrt iter   16 1.00000000   0.117E-06       0.085     7142.656
     Symmetrizing Results
     Final NS sqrt iter   16 1.00000000   0.212E-05


 *** WARNING in fm/cp_fm_elpa.F:522 :: Setting real_kernel for ELPA failed ***


 EWALD| Summation is done by:                                               SPME
 EWALD| Alpha parameter [       ANGSTROM^-1]                              1.8897
 EWALD| Real Space Cutoff [          ANGSTROM]                            1.7854
 EWALD| G-space max. Miller index                        125        45       225
 EWALD| Spline interpolation order                                             6
 
 -------------------------------------------------------------------------------
 -                            TDDFPT Initial Guess                             -
 -------------------------------------------------------------------------------
          State         Occupied      ->      Virtual          Excitation
          number         orbital              orbital          energy (eV)
 -------------------------------------------------------------------------------
             1              280                  281              2.55924
             2              280                  282              2.56061
             3              279                  281              2.56498
             4              279                  282              2.56635
             5              280                  283              2.58113
             6              280                  284              2.58406
             7              279                  283              2.58688
             8              279                  284              2.58980
             9              278                  281              2.68208
            10              278                  282              2.68345
            11              277                  281              2.68696
            12              277                  282              2.68833
            13              278                  283              2.70397
            14              278                  284              2.70690
            15              277                  283              2.70885
            16              277                  284              2.71178
            17              276                  281              2.77861
            18              276                  282              2.77998
            19              275                  281              2.79692
            20              274                  281              2.79745
            21              275                  282              2.79830
            22              273                  281              2.79876
            23              274                  282              2.79882
            24              273                  282              2.80013
            25              276                  283              2.80050
            26              276                  284              2.80343
            27              275                  283              2.81882
            28              274                  283              2.81934
            29              273                  283              2.82065
            30              275                  284              2.82174
            31              274                  284              2.82227
            32              273                  284              2.82358
            33              272                  281              2.82385
            34              272                  282              2.82522
            35              271                  281              2.82864
            36              271                  282              2.83001
            37              272                  283              2.84575
            38              270                  281              2.84863
            39              272                  284              2.84867
            40              270                  282              2.85000
            41              271                  283              2.85053
            42              271                  284              2.85346
            43              269                  281              2.86359
            44              269                  282              2.86496
            45              268                  281              2.86838
            46              268                  282              2.86976
            47              267                  281              2.87021
            48              270                  283              2.87052
            49              267                  282              2.87158
            50              270                  284              2.87345
            51              269                  283              2.88548
            52              269                  284              2.88841
            53              268                  283              2.89028
            54              267                  283              2.89211
            55              268                  284              2.89321
            56              266                  281              2.89379
            57              267                  284              2.89503
            58              266                  282              2.89516
            59              265                  281              2.90786
            60              265                  282              2.90923
            61              266                  283              2.91568
            62              266                  284              2.91861
            63              265                  283              2.92975
            64              265                  284              2.93268
            65              280                  285              3.14350
            66              279                  285              3.14924
            67              280                  286              3.15720
            68              279                  286              3.16295
            69              280                  287              3.19806
            70              279                  287              3.20381
            71              280                  288              3.21434
            72              279                  288              3.22008
            73              278                  285              3.26634
            74              277                  285              3.27122
            75              278                  286              3.28005
            76              277                  286              3.28493
            77              264                  281              3.31963
            78              278                  287              3.32091
            79              264                  282              3.32100
            80              277                  287              3.32579
            81              278                  288              3.33718
            82              264                  283              3.34152
            83              277                  288              3.34206
            84              264                  284              3.34445
            85              263                  281              3.36030
            86              263                  282              3.36167
            87              276                  285              3.36287
            88              276                  286              3.37657
            89              275                  285              3.38118
            90              274                  285              3.38171
            91              263                  283              3.38219
            92              273                  285              3.38302
            93              263                  284              3.38512
            94              262                  281              3.38606
            95              262                  282              3.38743
            96              261                  281              3.39229
            97              261                  282              3.39366
            98              275                  286              3.39489
            99              274                  286              3.39541
           100              273                  286              3.39673
           101              262                  283              3.40795
           102              272                  285              3.40811
           103              262                  284              3.41088
           104              271                  285              3.41290
           105              261                  283              3.41419
           106              261                  284              3.41711
           107              276                  287              3.41743
           108              260                  281              3.42046
           109              272                  286              3.42182
           110              260                  282              3.42184
           111              271                  286              3.42661
           112              270                  285              3.43289
           113              276                  288              3.43371
           114              275                  287              3.43575
           115              274                  287              3.43627
           116              273                  287              3.43759
           117              260                  283              3.44236
           118              260                  284              3.44528
           119              270                  286              3.44660
           120              269                  285              3.44785
           121              275                  288              3.45203
           122              274                  288              3.45255
           123              268                  285              3.45265
           124              273                  288              3.45386
           125              267                  285              3.45447
           126              269                  286              3.46156
           127              272                  287              3.46268
           128              268                  286              3.46635
           129              271                  287              3.46747
           130              267                  286              3.46818
           131              259                  281              3.47204
           132              259                  282              3.47341
           133              266                  285              3.47805
           134              272                  288              3.47895
           135              258                  281              3.47927
           136              258                  282              3.48064
           137              271                  288              3.48374
           138              270                  287              3.48746
           139              266                  286              3.49175
           140              265                  285              3.49212
           141              259                  283              3.49393
           142              259                  284              3.49686
           143              258                  283              3.50116
           144              269                  287              3.50242
           145              270                  288              3.50373
           146              258                  284              3.50409
           147              265                  286              3.50582
           148              268                  287              3.50721
           149              267                  287              3.50904
           150              257                  281              3.51066
           151              257                  282              3.51203
           152              269                  288              3.51869
           153              268                  288              3.52349
           154              267                  288              3.52531
           155              257                  283              3.53255
           156              266                  287              3.53261
           157              257                  284              3.53548
           158              265                  287              3.54668
           159              266                  288              3.54889
           160              265                  288              3.56296
           161              256                  281              3.69319
           162              256                  282              3.69456
           163              255                  281              3.69600
           164              255                  282              3.69737
           165              256                  283              3.71508
           166              255                  283              3.71789
           167              256                  284              3.71801
           168              255                  284              3.72082
           169              254                  281              3.89651
           170              254                  282              3.89788
           171              253                  281              3.89915
           172              253                  282              3.90052
           173              264                  285              3.90389
           174              280                  289              3.90926
           175              279                  289              3.91500
           176              264                  286              3.91759
           177              254                  283              3.91840
           178              253                  283              3.92104
           179              254                  284              3.92133
           180              253                  284              3.92397
           181              263                  285              3.94456
           182              263                  286              3.95826
           183              264                  287              3.95845
           184              262                  285              3.97032
           185              264                  288              3.97473
           186              261                  285              3.97655
           187              280                  290              3.98070
           188              262                  286              3.98402
           189              279                  290              3.98645
           190              261                  286              3.99026
           191              263                  287              3.99912
           192              260                  285              4.00473
           193              263                  288              4.01540
           194              260                  286              4.01843
           195              262                  287              4.02488
           196              261                  287              4.03112
           197              278                  289              4.03210
           198              277                  289              4.03698
           199              262                  288              4.04116
           200              261                  288              4.04739
           201              280                  291              4.05463
           202              259                  285              4.05630
           203              260                  287              4.05929
           204              279                  291              4.06038
           205              258                  285              4.06353
           206              259                  286              4.07001
           207              260                  288              4.07557
           208              258                  286              4.07723
           209              257                  285              4.09492
           210              278                  290              4.10355
           211              277                  290              4.10843
           212              257                  286              4.10862
           213              259                  287              4.11087
           214              258                  287              4.11809
           215              259                  288              4.12714
           216              276                  289              4.12863
           217              258                  288              4.13437
           218              280                  292              4.14013
           219              279                  292              4.14588
           220              275                  289              4.14694
           221              274                  289              4.14747
           222              273                  289              4.14878
           223              257                  287              4.14948
           224              257                  288              4.16576
           225              272                  289              4.17387
           226              278                  291              4.17747
           227              271                  289              4.17866
           228              277                  291              4.18235
           229              270                  289              4.19865
           230              276                  290              4.20007
           231              269                  289              4.21361
           232              275                  290              4.21839
           233              268                  289              4.21840
           234              274                  290              4.21891
           235              273                  290              4.22023
           236              267                  289              4.22023
           237              280                  293              4.23781
           238              279                  293              4.24355
           239              266                  289              4.24381
           240              272                  290              4.24532
           241              271                  290              4.25011
           242              280                  294              4.25213
           243              265                  289              4.25788
           244              279                  294              4.25788
           245              280                  295              4.26089
           246              278                  292              4.26298
           247              279                  295              4.26663
           248              277                  292              4.26786
           249              270                  290              4.27010
           250              276                  291              4.27400
           251              256                  285              4.27745
           252              255                  285              4.28026
           253              269                  290              4.28506
           254              268                  290              4.28985
           255              256                  286              4.29116
           256              267                  290              4.29168
           257              275                  291              4.29232
           258              274                  291              4.29284
           259              255                  286              4.29396
           260              273                  291              4.29415
           261              266                  290              4.31525
           262              272                  291              4.31924
           263              280                  296              4.32238
           264              271                  291              4.32403
           265              279                  296              4.32813
           266              265                  290              4.32932
           267              256                  287              4.33202
           268              255                  287              4.33482
           269              252                  281              4.33959
           270              252                  282              4.34097
           271              270                  291              4.34402
           272              251                  281              4.34433
           273              251                  282              4.34570
           274              256                  288              4.34829
           275              255                  288              4.35110
           276              269                  291              4.35898
           277              276                  292              4.35950
           278              278                  293              4.36065
           279              252                  283              4.36149
           280              268                  291              4.36378
           281              252                  284              4.36441
           282              277                  293              4.36553
           283              267                  291              4.36560
           284              251                  283              4.36622
           285              251                  284              4.36915
           286              278                  294              4.37498
           287              275                  292              4.37782
           288              274                  292              4.37834
           289              273                  292              4.37966
           290              277                  294              4.37986
           291              278                  295              4.38373
           292              250                  281              4.38665
           293              250                  282              4.38802
           294              277                  295              4.38861
           295              266                  291              4.38918
           296              249                  281              4.38979
           297              249                  282              4.39116
           298              265                  291              4.40325
           299              272                  292              4.40475
           300              250                  283              4.40854
           301              271                  292              4.40954
           302              250                  284              4.41147
           303              249                  283              4.41169
           304              249                  284              4.41461
           305              270                  292              4.42953
           306              280                  297              4.43045
           307              279                  297              4.43619
           308              269                  292              4.44449
           309              278                  296              4.44523
           310              268                  292              4.44928
           311              277                  296              4.45011
           312              267                  292              4.45111
           313              280                  298              4.45484
           314              276                  293              4.45718
           315              279                  298              4.46059
           316              276                  294              4.47150
           317              266                  292              4.47469
           318              275                  293              4.47549
           319              274                  293              4.47602
           320              273                  293              4.47733
           321              276                  295              4.48026
           322              254                  285              4.48077
           323              253                  285              4.48341
           324              280                  299              4.48413
           325              265                  292              4.48875
           326              275                  294              4.48982
           327              279                  299              4.48987
           328              274                  294              4.49034
           329              273                  294              4.49165
           330              254                  286              4.49447
           331              253                  286              4.49712
           332              275                  295              4.49858
           333              274                  295              4.49910
           334              273                  295              4.50041
           335              272                  293              4.50242
           336              248                  281              4.50563
           337              248                  282              4.50700
           338              280                  300              4.50700
           339              271                  293              4.50721
           340              247                  281              4.50928
           341              247                  282              4.51065
           342              279                  300              4.51275
           343              272                  294              4.51675
           344              271                  294              4.52154
           345              272                  295              4.52550
           346              270                  293              4.52720
           347              248                  283              4.52752
           348              271                  295              4.53029
           349              248                  284              4.53045
           350              247                  283              4.53117
           351              247                  284              4.53410
           352              254                  287              4.53533
           353              253                  287              4.53798
           354              270                  294              4.54152
           355              276                  296              4.54175
           356              269                  293              4.54216
           357              246                  281              4.54655
           358              268                  293              4.54696
           359              246                  282              4.54792
           360              267                  293              4.54878
           361              270                  295              4.55028
           362              254                  288              4.55161
           363              278                  297              4.55329
           364              253                  288              4.55425
           365              269                  294              4.55649
           366              245                  281              4.55690
           367              277                  297              4.55817
           368              245                  282              4.55827
           369              275                  296              4.56007
           370              274                  296              4.56059
           371              268                  294              4.56128
           372              273                  296              4.56190
           373              267                  294              4.56311
           374              269                  295              4.56524
           375              246                  283              4.56844
           376              280                  301              4.56874
           377              268                  295              4.57004
           378              246                  284              4.57137
           379              267                  295              4.57186
           380              266                  293              4.57236
           381              279                  301              4.57449
           382              278                  298              4.57768
           383              245                  283              4.57879
           384              245                  284              4.58172
           385              277                  298              4.58256
           386              265                  293              4.58643
           387              266                  294              4.58668
           388              272                  296              4.58700
           389              271                  296              4.59178
           390              266                  295              4.59544
           391              265                  294              4.60075
           392              278                  299              4.60697
           393              265                  295              4.60951
           394              270                  296              4.61177
           395              277                  299              4.61185
           396              269                  296              4.62674
           397              278                  300              4.62985
           398              268                  296              4.63153
           399              267                  296              4.63336
           400              277                  300              4.63473
           401              280                  302              4.63642
           402              280                  303              4.63789
           403              279                  302              4.64216
           404              279                  303              4.64364
           405              280                  304              4.64445
           406              276                  297              4.64982
           407              279                  304              4.65020
           408              266                  296              4.65693
           409              275                  297              4.66813
           410              274                  297              4.66866
           411              264                  289              4.66965
           412              273                  297              4.66997
           413              265                  296              4.67100
           414              276                  298              4.67421
           415              278                  301              4.69158
           416              275                  298              4.69253
           417              274                  298              4.69305
           418              273                  298              4.69436
           419              272                  297              4.69506
           420              277                  301              4.69646
           421              271                  297              4.69985
           422              276                  299              4.70349
           423              263                  289              4.71032
           424              272                  298              4.71946
           425              270                  297              4.71984
           426              275                  299              4.72181
           427              274                  299              4.72234
           428              273                  299              4.72365
           429              271                  298              4.72424
           430              276                  300              4.72637
           431              269                  297              4.73480
           432              262                  289              4.73608
           433              268                  297              4.73960
           434              264                  290              4.74109
           435              267                  297              4.74142
           436              261                  289              4.74231
           437              270                  298              4.74423
           438              275                  300              4.74469
           439              274                  300              4.74521
           440              273                  300              4.74653
           441              272                  299              4.74874
           442              271                  299              4.75353
           443              269                  298              4.75920
           444              278                  302              4.75926
           445              278                  303              4.76074
           446              268                  298              4.76399
           447              277                  302              4.76414
           448              266                  297              4.76500
           449              277                  303              4.76562
           450              267                  298              4.76582
           451              278                  304              4.76730
           452              260                  289              4.77048
           453              272                  300              4.77162
           454              277                  304              4.77218
           455              270                  299              4.77352
           456              271                  300              4.77641
           457              265                  297              4.77907
           458              263                  290              4.78176
           459              276                  301              4.78811
           460              269                  299              4.78848
           461              266                  298              4.78939
           462              268                  299              4.79327
           463              267                  299              4.79510
           464              270                  300              4.79640
           465              265                  298              4.80346
           466              275                  301              4.80643
           467              274                  301              4.80695
           468              262                  290              4.80752
           469              273                  301              4.80826
           470              269                  300              4.81136
           471              261                  290              4.81376
           472              264                  291              4.81502
           473              268                  300              4.81615
           474              267                  300              4.81798
           475              266                  299              4.81868
           476              259                  289              4.82206
           477              258                  289              4.82929
           478              265                  299              4.83274
           479              272                  301              4.83336
           480              271                  301              4.83814
           481              266                  300              4.84155
           482              260                  290              4.84193
           483              265                  300              4.85562
           484              263                  291              4.85569
           485              276                  302              4.85579
           486              276                  303              4.85726
           487              270                  301              4.85813
           488              257                  289              4.86068
           489              276                  304              4.86382
           490              269                  301              4.87310
           491              275                  302              4.87410
           492              274                  302              4.87463
           493              275                  303              4.87558
           494              273                  302              4.87594
           495              274                  303              4.87610
           496              273                  303              4.87742
           497              268                  301              4.87789
           498              267                  301              4.87972
           499              262                  291              4.88145
           500              275                  304              4.88214

      Number of active states:                                     595840
 -------------------------------------------------------------------------------
 
 -------------------------------------------------------------------------------
 -                      TDDFPT WAVEFUNCTION OPTIMIZATION                       -
 -------------------------------------------------------------------------------

          Step            Time         Convergence           Conv. states
 -------------------------------------------------------------------------------

 *** WARNING in fm/cp_fm_elpa.F:522 :: Setting real_kernel for ELPA failed ***

             1           113.7          3.5991E-02                      0

 *** WARNING in fm/cp_fm_elpa.F:522 :: Setting real_kernel for ELPA failed ***

             2           123.4          3.8155E-02                      0

 *** WARNING in fm/cp_fm_elpa.F:522 :: Setting real_kernel for ELPA failed ***

             3           140.0          1.8014E-03                     79

 *** WARNING in fm/cp_fm_elpa.F:522 :: Setting real_kernel for ELPA failed ***

             4           161.4          9.0793E-04                    399

 *** WARNING in fm/cp_fm_elpa.F:522 :: Setting real_kernel for ELPA failed ***

             5           182.8          1.3507E-04                    463

 *** WARNING in fm/cp_fm_elpa.F:522 :: Setting real_kernel for ELPA failed ***

             6           193.4          4.7039E-06                    499

 *** WARNING in fm/cp_fm_elpa.F:522 :: Setting real_kernel for ELPA failed ***

             7           111.8          5.7590E-08                    500
 ------------------------- Restart Davidson iterations -------------------------

 *** WARNING in fm/cp_fm_elpa.F:522 :: Setting real_kernel for ELPA failed ***

             8            63.9          1.6515E-15                    500
 
 -------------------------------------------------------------------------------
 -  TDDFPT run converged in 8 iteration(s) 
 -------------------------------------------------------------------------------

 R-TDDFPT states of multiplicity 1
 Transition dipoles calculated using velocity formulation

         State    Excitation        Transition dipole (a.u.)        Oscillator
         number   energy (eV)       x           y           z     strength (a.u.)
         ------------------------------------------------------------------------
 TDDFPT|      1       1.55993  -6.8651E-03  5.7960E-06 -9.1524E-03   5.00253E-06
 TDDFPT|      2       1.55993   1.0879E-07  3.4356E-01  1.5754E-07   4.51093E-03
 TDDFPT|      3       1.55998  -1.1052E-06  4.9215E-05 -1.4575E-06   9.26970E-11
 TDDFPT|      4       1.56001   5.1536E-07 -3.3222E-05  6.9664E-07   4.22118E-11
 TDDFPT|      5       1.88779  -4.4084E-01  2.2003E-07  3.3501E-01   1.41791E-02
 TDDFPT|      6       1.88913   4.4644E-07  1.4337E-01 -4.1498E-07   9.51304E-04
 TDDFPT|      7       1.88937  -1.4132E-06 -4.5003E-06  1.0665E-06   1.08258E-12
 TDDFPT|      8       1.88961  -1.8753E-06 -1.4433E-06  1.4050E-06   3.50632E-13
 TDDFPT|      9       1.93809   1.9167E+00 -1.2473E-06 -8.7408E-01   2.10718E-01
 TDDFPT|     10       1.94079  -4.3130E-06  7.3325E-07  1.9739E-06   1.09531E-12
 TDDFPT|     11       1.94349   2.2500E-06 -9.3303E-07 -1.0357E-06   3.33576E-13
 TDDFPT|     12       1.95386   1.5577E-06  1.4967E+00 -4.8896E-07   1.07238E-01
 TDDFPT|     13       2.03169   4.8516E-07  3.0977E-07 -1.1944E-07   1.72024E-14
 TDDFPT|     14       2.03920   6.8551E-07  4.5160E-07 -1.1809E-07   3.43626E-14
 TDDFPT|     15       2.05316  -2.6308E+00  5.9288E-06  5.4637E-01   3.63165E-01
 TDDFPT|     16       2.05639  -6.9729E-06 -1.9842E+00  1.4334E-06   1.98342E-01
 TDDFPT|     17       2.09205   3.0170E-01  2.1958E-06 -2.7292E-01   8.48319E-03
 TDDFPT|     18       2.09291   1.3071E-06 -4.0202E-01 -1.7842E-06   8.28699E-03
 TDDFPT|     19       2.09597   5.2398E-07 -6.0889E-07 -4.4970E-07   4.35206E-14
 TDDFPT|     20       2.09744  -3.2633E-07  3.4674E-07  3.9632E-07   1.97215E-14
 TDDFPT|     21       2.10831  -2.7305E-07 -1.5702E-07 -3.0830E-07   1.00343E-14
 TDDFPT|     22       2.10970   5.2580E-07  1.4972E-06  2.6749E-07   1.33855E-13
 TDDFPT|     23       2.11100   4.4380E-07  2.6622E-01  2.2302E-07   3.66549E-03
 TDDFPT|     24       2.11273  -3.4457E-01  3.5622E-07 -3.1845E-01   1.13948E-02
 TDDFPT|     25       2.11992  -4.3333E-07 -3.8409E-07  2.1608E-07   1.98396E-14
 TDDFPT|     26       2.12108   7.4778E-07  3.7130E-07  8.9979E-08   3.66428E-14
 TDDFPT|     27       2.13312  -1.7924E+00  3.8811E-06 -4.0041E-01   1.76282E-01
 TDDFPT|     28       2.13595   1.8231E-06  1.5706E+00  1.8230E-06   1.29091E-01
 TDDFPT|     29       2.13956   1.2868E+00  4.4334E-07 -5.8307E-01   1.04620E-01
 TDDFPT|     30       2.14468  -9.7210E-07 -8.7756E-01 -3.0436E-09   4.04645E-02
 TDDFPT|     31       2.15361  -7.0195E-07  1.0249E-06  4.2066E-07   9.07528E-14
 TDDFPT|     32       2.15527  -2.8656E-06  1.5997E-07  1.5806E-06   5.66857E-13
 TDDFPT|     33       2.15928   1.7511E+00  1.1737E-07 -1.2726E+00   2.47880E-01
 TDDFPT|     34       2.16052   5.9892E-08  1.2844E-07 -4.3679E-08   1.16402E-15
 TDDFPT|     35       2.16413   1.8717E-06  6.0803E-08 -1.2466E-06   2.68335E-13
 TDDFPT|     36       2.16963  -8.7519E-07 -5.6654E-02  5.9091E-07   1.70612E-04
 TDDFPT|     37       2.17458  -1.0263E+00  6.6685E-07  6.3633E-01   7.76830E-02
 TDDFPT|     38       2.18136  -1.9780E-06 -1.2625E+00  1.1941E-06   8.51787E-02
 TDDFPT|     39       2.18272   1.2032E-06  1.5570E-06 -7.7771E-07   2.39391E-13
 TDDFPT|     40       2.19016  -1.5446E-07 -1.0459E-06  5.6045E-08   6.01443E-14
 TDDFPT|     41       2.21061  -1.1938E-07 -1.7161E-08  7.5319E-07   3.15121E-14
 TDDFPT|     42       2.21461   3.0476E-09  5.5169E-08  1.3781E-07   1.19602E-15
 TDDFPT|     43       2.22743   2.0521E-01 -2.6967E-08  7.8256E-01   3.57176E-02
 TDDFPT|     44       2.23143   1.0216E-07 -4.1262E-01 -2.2644E-07   9.30774E-03
 TDDFPT|     45       2.24148   1.8564E-07 -2.9646E-01 -2.2150E-07   4.82639E-03
 TDDFPT|     46       2.24296  -1.7278E-01 -4.1278E-07  2.2434E-01   4.40595E-03
 TDDFPT|     47       2.25175  -1.0900E-07  1.3478E-07  1.0061E-07   2.21596E-15
 TDDFPT|     48       2.25614  -2.6071E-08  1.3360E-07  1.7809E-08   1.04166E-15
 TDDFPT|     49       2.28336   8.9974E-08 -1.1521E-07  8.8530E-08   1.63378E-15
 TDDFPT|     50       2.28373   4.5503E-08 -2.2557E-07  5.4204E-08   3.12704E-15
 TDDFPT|     51       2.29294  -3.5618E-07 -2.4686E-01 -2.5955E-07   3.42323E-03
 TDDFPT|     52       2.29389  -1.5779E-01  5.6333E-07 -1.0618E-01   2.03278E-03
 TDDFPT|     53       2.32156  -2.2551E-07 -9.3658E-07 -3.2282E-08   5.28434E-14
 TDDFPT|     54       2.32206   4.1986E-07  1.1716E-06  3.7311E-08   8.81979E-14
 TDDFPT|     55       2.32270  -4.9680E-07 -2.2576E-01 -5.0955E-09   2.90027E-03
 TDDFPT|     56       2.32325   1.1252E-01 -1.1063E-06  5.4733E-03   7.22361E-04
 TDDFPT|     57       2.34685  -4.7397E-07  2.8126E-06 -5.3837E-07   4.84425E-13
 TDDFPT|     58       2.34709  -6.6318E-07  1.1204E-05 -8.4426E-07   7.28452E-12
 TDDFPT|     59       2.34717  -3.0924E-07 -2.3514E-01 -4.2727E-07   3.17957E-03
 TDDFPT|     60       2.34758  -8.8374E-02  9.6135E-07 -1.0951E-01   1.13894E-03
 TDDFPT|     61       2.37146  -5.8900E-09  1.3673E-07  1.4913E-09   1.08840E-15
 TDDFPT|     62       2.37169   9.3115E-08  3.5718E-09  6.9918E-08   7.88583E-16
 TDDFPT|     63       2.37732  -5.7048E-08 -3.3258E-01 -9.0245E-08   6.44222E-03
 TDDFPT|     64       2.37798   2.5649E-01 -2.9631E-07  1.6405E-01   5.40081E-03
 TDDFPT|     65       2.44808   6.8973E-06  2.2446E-06  1.0834E-06   3.22587E-12
 TDDFPT|     66       2.44894   3.3613E-05  1.5455E-06  5.0158E-06   6.94404E-11
 TDDFPT|     67       2.44930  -2.9328E+00  2.3205E-05 -4.3707E-01   5.27603E-01
 TDDFPT|     68       2.45185  -3.1411E-05 -2.1227E+00 -4.6689E-06   2.70662E-01
 TDDFPT|     69       2.51808   1.3626E+00 -5.2606E-08 -4.2885E-01   1.25893E-01
 TDDFPT|     70       2.52150  -1.5006E-06  7.7452E-09  5.8780E-07   1.60463E-13
 TDDFPT|     71       2.52356  -3.6493E-01 -2.3720E-08  4.1857E-01   1.90657E-02
 TDDFPT|     72       2.53144   6.2113E-07 -1.3176E-07 -3.9573E-07   3.47162E-14
 TDDFPT|     73       2.53906   2.2765E-07  7.5683E-01 -4.4104E-08   3.56307E-02
 TDDFPT|     74       2.54024   4.2859E-08  1.9865E-06 -3.0693E-08   2.45762E-13
 TDDFPT|     75       2.55409   1.4426E-07 -6.3440E-06 -6.9502E-08   2.51997E-12
 TDDFPT|     76       2.55531   3.7019E-07  1.0565E+00 -9.4257E-08   6.98817E-02
 TDDFPT|     77       2.58230  -1.5437E-01  1.0118E-07  6.5803E-02   1.78157E-03
 TDDFPT|     78       2.58329   7.8636E-07  3.8492E-08 -3.3044E-07   4.61400E-14
 TDDFPT|     79       2.60119  -5.5084E-09 -2.8436E-06  1.2287E-09   5.15320E-13
 TDDFPT|     80       2.60196   2.2540E-08  5.1559E-01 -2.3678E-08   1.69462E-02
 TDDFPT|     81       2.63769   2.6545E-06  8.4611E-07 -6.1498E-07   5.26042E-13
 TDDFPT|     82       2.64044  -1.3198E+00  2.8509E-07  3.0836E-01   1.18839E-01
 TDDFPT|     83       2.64261   3.5888E-06 -2.1386E-06 -8.5630E-07   1.17746E-12
 TDDFPT|     84       2.64552   1.3426E-06  1.0379E+00 -3.0517E-07   6.98224E-02
 TDDFPT|     85       2.66810  -6.7780E-07 -1.0560E-04  1.7194E-07   7.29024E-10
 TDDFPT|     86       2.66816   4.4912E-07  1.8636E+00  3.4697E-07   2.27024E-01
 TDDFPT|     87       2.66894  -1.1701E-06  8.0632E-06  2.6834E-07   4.34545E-12
 TDDFPT|     88       2.67370   1.1279E-07  1.4485E-06  5.8673E-08   1.38495E-13
 TDDFPT|     89       2.67710  -1.3841E+00 -4.1547E-07  3.6515E-01   1.34390E-01
 TDDFPT|     90       2.68615   1.1942E-07 -5.9204E-01 -5.1307E-07   2.30667E-02
 TDDFPT|     91       2.69457  -8.4712E-01 -1.0847E-06  6.6501E-01   7.65682E-02
 TDDFPT|     92       2.70099   1.1811E-06  2.1924E-07 -5.3187E-07   1.14204E-13
 TDDFPT|     93       2.71267   1.8226E+00 -4.0612E-06 -8.1374E-03   2.20762E-01
 TDDFPT|     94       2.71799  -6.0741E-06 -1.0058E+00 -2.2136E-09   6.73608E-02
 TDDFPT|     95       2.72775   6.3586E-07 -2.5548E-07  1.2065E-07   3.23551E-14
 TDDFPT|     96       2.72964  -2.8468E-07 -1.9757E-01  1.1995E-07   2.61043E-03
 TDDFPT|     97       2.73119   1.0046E-06 -2.0828E-07  3.4327E-07   7.83215E-14
 TDDFPT|     98       2.73439   5.0308E-06 -2.7392E-07  2.0775E-06   1.98965E-12
 TDDFPT|     99       2.73516   8.1896E-01 -1.0050E-07  3.0302E-01   5.10963E-02
 TDDFPT|    100       2.73703  -1.8797E-06 -5.1442E-07 -7.3910E-07   2.91296E-13
 TDDFPT|    101       2.74938  -4.4473E-08 -4.0233E-07  8.3109E-09   1.10413E-14
 TDDFPT|    102       2.75165  -1.0952E-01  1.9571E-08  2.1307E-01   3.86897E-03
 TDDFPT|    103       2.75593  -1.6476E-07  3.8333E-06  2.0663E-07   9.96833E-13
 TDDFPT|    104       2.75728  -1.0674E-07 -1.0322E+00  1.6253E-08   7.19785E-02
 TDDFPT|    105       2.76190   1.3259E-07 -2.9741E-07  4.0319E-08   7.28486E-15
 TDDFPT|    106       2.76798  -3.7319E-08  2.7365E-07 -7.6131E-09   5.17675E-15
 TDDFPT|    107       2.77208   3.2937E-07  7.0153E-02  2.6471E-08   3.34234E-04
 TDDFPT|    108       2.77841  -2.4984E-01  2.1408E-08  5.9050E-02   4.48640E-03
 TDDFPT|    109       2.78086   1.6018E-07 -9.9001E-05 -1.5849E-08   6.67751E-10
 TDDFPT|    110       2.78087   3.1585E-07  4.4008E-01  2.0924E-08   1.31946E-02
 TDDFPT|    111       2.78572   3.8791E-01 -1.0841E-07  1.5721E-01   1.19567E-02
 TDDFPT|    112       2.78916  -2.1601E-07  2.6326E-07 -3.5142E-08   8.00865E-15
 TDDFPT|    113       2.79096  -8.6643E-07  7.1960E-08 -5.2463E-07   7.05045E-14
 TDDFPT|    114       2.79146   2.2488E-01 -1.2064E-08  1.6089E-01   5.22883E-03
 TDDFPT|    115       2.79227   8.6808E-07 -2.5474E-03  5.7082E-07   4.43919E-07
 TDDFPT|    116       2.79237  -8.1725E-08  2.6847E-07  2.3633E-08   5.42609E-15
 TDDFPT|    117       2.80545   2.0059E-07 -1.4635E-06  7.5651E-08   1.50375E-13
 TDDFPT|    118       2.80662   2.7135E-06 -9.8781E-07  4.9468E-07   5.90218E-13
 TDDFPT|    119       2.80704  -3.8918E-06  7.5369E-01 -5.7270E-07   3.90654E-02
 TDDFPT|    120       2.80747   6.0836E-01  4.6052E-06  1.0844E-01   2.62651E-02
 TDDFPT|    121       2.81575  -1.0304E-07  3.0926E-07 -6.6171E-08   7.63239E-15
 TDDFPT|    122       2.81994  -4.1962E-08  2.0657E-01  3.4492E-08   2.94811E-03
 TDDFPT|    123       2.82607  -2.0699E-07 -5.8237E-08 -1.7678E-07   5.36506E-15
 TDDFPT|    124       2.83113   1.3904E-01 -7.4595E-08  1.6252E-01   3.17301E-03
 TDDFPT|    125       2.84597   7.2385E-02 -7.1227E-08  9.7655E-02   1.03026E-03
 TDDFPT|    126       2.85325   3.1640E-08 -4.2929E-06 -7.2861E-09   1.28832E-12
 TDDFPT|    127       2.85439   2.3032E-07  7.8758E-01  9.7793E-08   4.33774E-02
 TDDFPT|    128       2.85671  -4.8904E-07 -4.9080E-01 -1.7734E-07   1.68588E-02
 TDDFPT|    129       2.85822  -8.5430E-01  3.1847E-07 -3.8129E-01   6.12867E-02
 TDDFPT|    130       2.86061  -2.2611E-06 -2.4870E-07 -1.0027E-06   4.33097E-13
 TDDFPT|    131       2.86163  -2.7576E-07 -9.5352E-07 -1.1114E-07   6.99402E-14
 TDDFPT|    132       2.86229   3.3460E-07 -1.3346E-07  1.8230E-07   1.14307E-14
 TDDFPT|    133       2.87783  -3.5401E-01 -2.4329E-06 -6.5805E-02   9.14139E-03
 TDDFPT|    134       2.87787  -1.8264E-06  4.5039E-01 -4.3971E-07   1.43027E-02
 TDDFPT|    135       2.89304   4.0750E-09  1.7222E-01 -2.8714E-08   2.10221E-03
 TDDFPT|    136       2.89471  -2.2514E-02  3.2036E-08  1.0231E-01   7.78231E-04
 TDDFPT|    137       2.89496  -8.7331E-08 -2.4165E-07  8.2406E-07   5.28464E-14
 TDDFPT|    138       2.89727  -3.9572E-08 -1.6681E-07  1.3537E-07   3.38695E-15
 TDDFPT|    139       2.89775  -1.1959E-07 -4.1704E-08  4.0369E-08   1.25447E-15
 TDDFPT|    140       2.89856   8.6961E-10 -1.4444E-07 -5.7199E-08   1.71388E-15
 TDDFPT|    141       2.91018  -3.7772E-08  1.4426E-06 -2.2507E-08   1.48514E-13
 TDDFPT|    142       2.91081  -1.2838E-08  3.1095E-01 -7.1402E-09   6.89530E-03
 TDDFPT|    143       2.92017   2.9333E-07  9.4225E-08  1.7746E-07   9.04415E-15
 TDDFPT|    144       2.92178   1.4830E-01  1.1640E-08  9.7363E-02   2.25277E-03
 TDDFPT|    145       2.94685   6.2502E-08 -4.7039E-07  4.2631E-08   1.63881E-14
 TDDFPT|    146       2.94827  -8.9271E-06 -1.7381E-08 -5.9061E-06   8.27585E-12
 TDDFPT|    147       2.94933  -1.4054E+00  1.6482E-06 -9.2887E-01   2.05056E-01
 TDDFPT|    148       2.95235  -2.3055E-07 -6.6422E-08 -1.8271E-07   6.57830E-15
 TDDFPT|    149       2.95422   5.5076E-07  1.4260E-01  3.6204E-07   1.47186E-03
 TDDFPT|    150       2.95571  -1.8387E-07  1.6628E-07 -1.2292E-07   5.54453E-15
 TDDFPT|    151       2.95772   2.3760E-06  7.3041E-01  1.4819E-06   3.86589E-02
 TDDFPT|    152       2.95897  -2.6609E-01 -1.1176E-06 -1.9450E-01   7.87522E-03
 TDDFPT|    153       2.96139  -2.7499E-07 -8.8333E-08 -2.5487E-07   1.07655E-14
 TDDFPT|    154       2.96453   1.8171E-07  1.1939E-07  1.2538E-07   4.57511E-15
 TDDFPT|    155       2.96588   1.8058E-01  6.2842E-07  3.7239E-02   2.47027E-03
 TDDFPT|    156       2.96923   2.4102E-06  2.2404E-01  1.0614E-06   3.65137E-03
 TDDFPT|    157       2.97646   2.5148E-07 -3.5406E-01  8.6708E-08   9.14130E-03
 TDDFPT|    158       2.97778  -8.9445E-09  7.5863E-08  8.6760E-09   4.31194E-16
 TDDFPT|    159       2.98330   9.9957E-07  7.9276E-08  7.5477E-07   1.15123E-13
 TDDFPT|    160       2.98615  -7.9111E-01 -2.3379E-07 -6.1334E-01   7.33081E-02
 TDDFPT|    161       2.98862   1.8441E-07 -4.7607E-07  1.5360E-07   2.08124E-14
 TDDFPT|    162       2.99386   4.3273E-07 -1.0453E+00  3.5031E-08   8.01455E-02
 TDDFPT|    163       2.99636  -8.2845E-01 -5.2794E-08 -5.0529E-01   6.91259E-02
 TDDFPT|    164       3.01156   6.6260E-08  1.5715E-07  5.6319E-08   2.38015E-15
 TDDFPT|    165       3.16454  -5.0280E-08  1.2189E-08 -9.7820E-09   2.14943E-16
 TDDFPT|    166       3.16472   9.1313E-09  2.9418E-08 -4.3322E-09   7.50212E-17
 TDDFPT|    167       3.16678   8.7432E-02 -4.2534E-06 -1.0537E-01   1.45452E-03
 TDDFPT|    168       3.16712  -1.2977E-06 -3.0399E-01  1.5162E-06   7.17046E-03
 TDDFPT|    169       3.17646   3.9314E-08  8.1948E-08 -5.1677E-08   8.50712E-16
 TDDFPT|    170       3.17821  -1.3817E-08 -9.8311E-08  2.2380E-08   8.06429E-16
 TDDFPT|    171       3.18817   2.3311E-06 -1.1629E-01  1.0778E-06   1.05635E-03
 TDDFPT|    172       3.18832   1.4547E-01  1.8479E-06  6.9355E-02   2.02869E-03
 TDDFPT|    173       3.24724   4.7626E-07  3.8143E-01 -3.0724E-07   1.15743E-02
 TDDFPT|    174       3.24778  -3.2823E-08 -3.4057E-06  9.5384E-09   9.23003E-13
 TDDFPT|    175       3.26163  -4.5031E-07 -1.1501E-08  1.0090E-06   9.75731E-14
 TDDFPT|    176       3.26428  -1.9887E-01  1.7197E-07  4.3182E-01   1.80756E-02
 TDDFPT|    177       3.27885  -3.8020E-07 -1.6652E-01  1.3009E-07   2.22760E-03
 TDDFPT|    178       3.28502  -2.5391E-08 -1.5907E-07 -2.1682E-08   2.12611E-15
 TDDFPT|    179       3.29884   1.6085E-01  6.4490E-07 -3.4965E-01   1.19716E-02
 TDDFPT|    180       3.30334   2.4870E-07  1.3180E-07 -4.1555E-07   2.03865E-14
 TDDFPT|    181       3.31162  -3.1827E-01  8.3757E-07  4.2719E-01   2.30245E-02
 TDDFPT|    182       3.31781   2.9235E-07 -2.4092E-07 -2.5021E-07   1.67540E-14
 TDDFPT|    183       3.32086  -1.4537E-06  6.5737E-01  3.8759E-07   3.51586E-02
 TDDFPT|    184       3.32277  -3.8786E-07  1.4668E-06  1.4195E-07   1.89026E-13
 TDDFPT|    185       3.32569  -4.1589E-07  4.0064E-08  2.4597E-07   1.91528E-14
 TDDFPT|    186       3.33152  -1.7851E+00  9.8641E-07  5.9904E-01   2.89388E-01
 TDDFPT|    187       3.34249   4.9092E-07  1.2550E+00 -6.2811E-07   1.28970E-01
 TDDFPT|    188       3.34757   1.9342E-07  2.0951E-07 -9.8110E-08   7.45760E-15
 TDDFPT|    189       3.36851   4.7464E-06 -1.0477E+00  2.0399E-07   9.05852E-02
 TDDFPT|    190       3.37164   8.4121E-07 -5.8968E-07 -3.2832E-08   8.72649E-14
 TDDFPT|    191       3.37318   9.6393E-01  4.0742E-06 -3.7619E-02   7.69035E-02
 TDDFPT|    192       3.37419  -1.0050E-05  1.7495E-01 -6.2994E-07   2.53029E-03
 TDDFPT|    193       3.37438   6.7012E-01  5.0891E-06  3.0233E-02   3.72000E-02
 TDDFPT|    194       3.37811   5.2136E-07  8.1170E-08 -1.2896E-08   2.30551E-14
 TDDFPT|    195       3.39752   1.2317E-08 -2.6561E-08  2.1137E-09   7.17228E-17
 TDDFPT|    196       3.39779  -5.1915E-08 -2.8785E-09 -2.6516E-08   2.83576E-16
 TDDFPT|    197       3.40156  -3.1199E-08  1.8097E-07 -2.3195E-08   2.85514E-15
 TDDFPT|    198       3.40443   1.3299E-01  2.0045E-07  1.3814E-01   3.06664E-03
 TDDFPT|    199       3.40882   8.1101E-07  1.3169E-01  1.1550E-07   1.44833E-03
 TDDFPT|    200       3.41139  -5.7412E-09 -4.4987E-08 -7.3360E-08   6.21693E-16
 TDDFPT|    201       3.41303  -3.8869E-08 -1.1422E-07 -2.5313E-08   1.27072E-15
 TDDFPT|    202       3.41955   1.2938E+00  1.0950E-07 -1.5774E-02   1.40249E-01
 TDDFPT|    203       3.42117  -1.6242E-06  6.0998E-09  4.3213E-08   2.21265E-13
 TDDFPT|    204       3.42778  -8.9057E-07  9.3591E-01 -5.6932E-07   7.35593E-02
 TDDFPT|    205       3.44253   7.0244E-01  4.2520E-07  5.4590E-01   6.67498E-02
 TDDFPT|    206       3.44607   9.0173E-07  2.3219E-08  6.1786E-07   1.00924E-13
 TDDFPT|    207       3.44638  -1.1633E-07  7.6009E-08  1.9705E-08   1.66330E-15
 TDDFPT|    208       3.45390  -8.9067E-08  3.2310E-07 -2.8418E-08   9.57318E-15
 TDDFPT|    209       3.45571   7.8647E-08  4.1766E-01  3.0685E-07   1.47688E-02
 TDDFPT|    210       3.46796   1.4544E-07  7.9593E-08 -2.1247E-08   2.37394E-15
 TDDFPT|    211       3.46938   1.5663E-06 -1.7921E-01  1.2405E-06   2.72987E-03
 TDDFPT|    212       3.47748   1.3028E+00 -3.0083E-06  2.9333E-01   1.51926E-01
 TDDFPT|    213       3.48197  -7.7505E-01  7.8099E-06  3.0421E-01   5.91383E-02
 TDDFPT|    214       3.48385  -7.7580E-06 -1.5397E+00  3.7092E-06   2.02342E-01
 TDDFPT|    215       3.48722   2.7260E-07  1.0696E-07 -8.7784E-07   7.31622E-14
 TDDFPT|    216       3.48931  -2.3278E-01  4.9612E-06  7.8366E-01   5.71321E-02
 TDDFPT|    217       3.49276  -2.5217E-07  2.7860E-08 -1.0694E-07   6.48639E-15
 TDDFPT|    218       3.49549  -6.5393E-07 -1.9728E-07 -2.4813E-07   4.52272E-14
 TDDFPT|    219       3.49851  -6.5852E-07 -1.8828E-01 -1.6090E-07   3.03855E-03
 TDDFPT|    220       3.50081   4.9162E-06 -4.5182E-08  2.2935E-06   2.52426E-12
 TDDFPT|    221       3.50125  -1.4124E+00 -1.5889E-06 -6.8918E-01   2.11852E-01
 TDDFPT|    222       3.50358   5.0843E-06 -3.2062E-02  2.3731E-06   8.82382E-05
 TDDFPT|    223       3.51032   6.5697E-08 -1.9890E-07 -5.7720E-08   4.06001E-15
[...]
 flops   228 x   104 x    32         291373056000       0.0%    100.0%      0.0%
 flops   252 x   104 x    32         322043904000       0.0%    100.0%      0.0%
 flops   287 x   104 x    32         366772224000       0.0%    100.0%      0.0%
 flops   293 x   104 x    32         374439936000       0.0%    100.0%      0.0%
 flops   304 x   104 x    32         388497408000       0.0%    100.0%      0.0%
 flops   305 x   104 x    32         389775360000       0.0%    100.0%      0.0%
 flops   228 x   109 x    32         407175168000       0.0%    100.0%      0.0%
 flops   228 x   114 x    32         425852928000       0.0%    100.0%      0.0%
 flops   350 x   104 x    32         447283200000       0.0%    100.0%      0.0%
 flops   252 x   109 x    32         450035712000       0.0%    100.0%      0.0%
 flops   252 x   114 x    32         470679552000       0.0%    100.0%      0.0%
 flops   389 x   104 x    32         497123328000       0.0%    100.0%      0.0%
 flops   287 x   109 x    32         512540672000       0.0%    100.0%      0.0%
 flops     6 x    24 x    17         513671086080       0.0%    100.0%      0.0%
 flops    17 x    24 x     6         513671086080       0.0%    100.0%      0.0%
 flops   293 x   109 x    32         523255808000       0.0%    100.0%      0.0%
 flops   287 x   114 x    32         536051712000       0.0%    100.0%      0.0%
 flops   304 x   109 x    32         542900224000       0.0%    100.0%      0.0%
 flops   305 x   109 x    32         544686080000       0.0%    100.0%      0.0%
 flops   293 x   114 x    32         547258368000       0.0%    100.0%      0.0%
 flops   304 x   114 x    32         567803904000       0.0%    100.0%      0.0%
 flops   305 x   114 x    32         569671680000       0.0%    100.0%      0.0%
 flops   228 x    32 x    46         601461460992       0.0%    100.0%      0.0%
 flops   350 x   109 x    32         625049600000       0.0%    100.0%      0.0%
 flops   350 x   114 x    32         653721600000       0.0%    100.0%      0.0%
 flops   252 x    32 x    46         664773193728       0.0%    100.0%      0.0%
 flops   389 x   109 x    32         694697984000       0.0%    100.0%      0.0%
 flops   389 x   114 x    32         726564864000       0.0%    100.0%      0.0%
 flops   287 x    32 x    46         757102803968       0.0%    100.0%      0.0%
 flops   293 x    32 x    46         772930737152       0.0%    100.0%      0.0%
 flops   304 x    32 x    46         801948614656       0.0%    100.0%      0.0%
 flops   305 x    32 x    46         804586603520       0.0%    100.0%      0.0%
 flops    17 x    17 x    17         837895131368       0.0%    100.0%      0.0%
 flops   350 x    32 x    46         923296102400       0.0%    100.0%      0.0%
 flops   228 x    32 x    57         958228973568       0.0%    100.0%      0.0%
 flops   389 x    32 x    46        1026177668096       0.0%    100.0%      0.0%
 flops   228 x    32 x    63        1059095181312       0.0%    100.0%      0.0%
 flops   252 x    32 x    57        1059095181312       0.0%    100.0%      0.0%
 flops   252 x    32 x    63        1170578884608       0.0%    100.0%      0.0%
 flops   287 x    32 x    57        1206191734272       0.0%    100.0%      0.0%
 flops     6 x    32 x     6        1219833704448       0.0%    100.0%      0.0%
 flops   293 x    32 x    57        1231408286208       0.0%    100.0%      0.0%
 flops   304 x    32 x    57        1277638631424       0.0%    100.0%      0.0%
 flops   305 x    32 x    57        1281841390080       0.0%    100.0%      0.0%
 flops   287 x    32 x    63        1333159285248       0.0%    100.0%      0.0%
 flops   293 x    32 x    63        1361030211072       0.0%    100.0%      0.0%
 flops   304 x    32 x    63        1412126908416       0.0%    100.0%      0.0%
 flops   305 x    32 x    63        1416772062720       0.0%    100.0%      0.0%
 flops   350 x    32 x    57        1470965529600       0.0%    100.0%      0.0%
 flops   350 x    32 x    63        1625804006400       0.0%    100.0%      0.0%
 flops   389 x    32 x    57        1634873117184       0.0%    100.0%      0.0%
 flops   389 x    32 x    63        1806965024256       0.0%    100.0%      0.0%
 flops    17 x    24 x    17        1996070267904       0.0%    100.0%      0.0%
 flops     6 x    32 x    17        5487552737280       0.0%    100.0%      0.0%
 flops    17 x    32 x     6        5487552737280       0.0%    100.0%      0.0%
 flops    17 x    32 x    17       21324036254464       0.0%    100.0%      0.0%
 flops inhomo. stacks              33965683682560     100.0%      0.0%      0.0%
 flops total                       115.540320E+12      29.4%     70.6%      0.0%
 flops max/rank                      3.260237E+12      34.4%     65.6%      0.0%
 matmuls inhomo. stacks                  21889368     100.0%      0.0%      0.0%
 matmuls total                         4285159464       0.5%     99.5%      0.0%
 number of processed stacks             201599597      10.9%     89.1%      0.0%
 average stack size                                     1.0      23.7       0.0
 marketing flops                   104.185119E+12
 -------------------------------------------------------------------------------
 # multiplications                          31576
 max memory usage/rank               1.610363E+09
 # max total images/rank                       11
 # max 3D layers                                1
 # MPI messages exchanged               208401600
 MPI messages size (bytes):
  total size                        27.599672E+12
  min size                           0.000000E+00
  max size                         365.264000E+03
  average size                     132.435031E+03
 MPI breakdown and total messages size (bytes):
             size <=      128            68220822                        0
       128 < size <=     8192             1239276               7864619760
      8192 < size <=    32768            33841746             502660788048
     32768 < size <=   131072             2825388             308699866128
    131072 < size <=  4194304           102274368           26786384355024
   4194304 < size <= 16777216                   0                        0
  16777216 < size                               0                        0
 -------------------------------------------------------------------------------

 *** WARNING in dbcsr_mm.F:291 :: Using a non-square number of MPI ranks ***
 *** might lead to poor performance. Used ranks: 88 Suggested: 81 169    ***

 -------------------------------------------------------------------------------
 -                                                                             -
 -                      DBCSR MESSAGE PASSING PERFORMANCE                      -
 -                                                                             -
 -------------------------------------------------------------------------------
 ROUTINE             CALLS      AVE VOLUME [Bytes]
 MP_Bcast              125                     12.
 MP_Allreduce       135187                      8.
 MP_Alltoall        725939                  67347.
 MP_ISend          5160378                  65766.
 MP_IRecv          5292562                  63132.
 -------------------------------------------------------------------------------

 -------------------------------------------------------------------------------
 -                                                                             -
 -                                DBM STATISTICS                               -
 -                                                                             -
 -------------------------------------------------------------------------------
    M  x    N  x    K                                          COUNT     PERCENT
 -------------------------------------------------------------------------------

 -------------------------------------------------------------------------------
 -                                                                             -
 -                                GRID STATISTICS                              -
 -                                                                             -
 -------------------------------------------------------------------------------
 LP    KERNEL             BACKEND                              COUNT     PERCENT
 2     collocate general  CPU                                 583466      26.49%
 1     collocate general  CPU                                 473992      21.52%
 2     integrate general  CPU                                 388828      17.66%
 1     integrate general  CPU                                 315136      14.31%
 3     collocate general  CPU                                 139200       6.32%
 0     collocate general  CPU                                 123658       5.61%
 3     integrate general  CPU                                  92800       4.21%
 0     integrate general  CPU                                  70380       3.20%
 4     collocate general  CPU                                   8940       0.41%
 4     integrate general  CPU                                   5960       0.27%
 -------------------------------------------------------------------------------

 MEMORY| Estimated peak process memory [MiB]                                1536

 -------------------------------------------------------------------------------
 -                                                                             -
 -                         MESSAGE PASSING PERFORMANCE                         -
 -                                                                             -
 -------------------------------------------------------------------------------

 ROUTINE             CALLS      AVE VOLUME [Bytes]
 MP_Group                5
 MP_Bcast              581                1214134.
 MP_Allreduce      6393238                     47.
 MP_Sync                17
 MP_Alltoall          8084                 687617.
 MP_SendRecv          1305                  42144.
 MP_ISendRecv          522                  42144.
 MP_Wait            192444
 MP_comm_split           2
 MP_ISend           120152                  13022.
 MP_IRecv           167882                   9326.
 MP_Write_All            2                  60672.
 -------------------------------------------------------------------------------


 -------------------------------------------------------------------------------
 -                                                                             -
 -                           R E F E R E N C E S                               -
 -                                                                             -
 -------------------------------------------------------------------------------
 
 CP2K version 2023.2, the CP2K developers group (2023).
 CP2K is freely available from https://www.cp2k.org/ .

 Kuehne,Thomas D.; Iannuzzi,Marcella; Del Ben,Mauro;
 Rybkin,Vladimir V.; Seewald,Patrick; Stein,Frederick; Laino,Teodoro;
 Khaliullin,Rustam Z.; Schuett,Ole; Schiffmann,Florian; Golze,Dorothea;
 Wilhelm,Jan; Chulkov,Sergey; Bani-Hashemian,Mohammad Hossein;
 Weber,Valery; Borstnik,Urban; Taillefumier,Mathieu;
 Jakobovits,Alice Shoshana; Lazzaro,Alfio; Pabst,Hans; Mueller,Tiziano;
 Schade,Robert; Guidon,Manuel; Andermatt,Samuel; Holmberg,Nico;
 Schenter,Gregory K.; Hehn,Anna; Bussy,Augustin; Belleflamme,Fabian;
 Tabacchi,Gloria; Gloess,Andreas; Lass,Michael; Bethune,Iain;
 Mundy,Christopher J.; Plessl,Christian; Watkins,Matt;
 VandeVondele,Joost; Krack,Matthias; Hutter,Juerg. 
 The Journal of Chemical Physics, 152 (19), (2020). 
 CP2K: An electronic structure and molecular dynamics software package -
 Quickstep: Efficient and accurate electronic structure calculations.
 https://doi.org/10.1063/5.0007045

 Grimme, S; Bannwarth, C. 
 The Journal of Chemical Physics, 145, 054103 (2016). 
 Ultra-fast computation of electronic spectra for large systems
 by tight-binding based simplified Tamm-Dancoff approximation (sTDA-xTB).
 https://doi.org/10.1063/1.4959605

 Schuett, Ole; Messmer, Peter; Hutter, Juerg; VandeVondele, Joost. 
 Electronic Structure Calculations on Graphics Processing Units, John
 Wiley & Sons, Ltd, 173-190 (2016). 
 GPU-Accelerated Sparse Matrix-Matrix Multiplication for
 Linear Scaling Density Functional Theory.
 https://doi.org/10.1002/9781118670712.ch8

 Heinecke, A; Henry, G; Hutchinson, M; Pabst, H. 
 Proceedings of Intl. Supercomputing Conference, 981-991 (2016). 
 LIBXSMM: Accelerating Small Matrix Multiplications
 by Runtime Code Generation.
 https://doi.org/10.1109/SC.2016.83

 Borstnik, U; VandeVondele, J; Weber, V; Hutter, J. 
 PARALLEL COMPUTING, 40 (5-6), 47-58 (2014). 
 Sparse matrix multiplication: The distributed block-compressed sparse
 row library.
 https://doi.org/10.1016/j.parco.2014.03.012

 Hutter, J; Iannuzzi, M; Schiffmann, F; VandeVondele, J. 
 WIREs Comput Mol Sci., 4 (1), 15-25 (2014). 
 CP2K: atomistic simulations of condensed matter systems.
 https://doi.org/10.1002/wcms.1159

 Marek, A; Blum, V; Johanni, R; Havu, V; Lang, B; Auckenthaler, T;
 Heinecke, A; Bungartz, H; Lederer, H. 
 Journal of Physics: Condensed Matter, 26 (21), (2014). 
 The ELPA library: scalable parallel eigenvalue solutions for
 electronic structure
 theory and computational science.
 https://doi.org/10.1088/0953-8984/26/21/213201

 Grimme, S. The Journal of Chemical Physics, 138, 244104 (2013). 
 A simplified Tamm-Dancoff density functional approach for
 the electronic excitation spectra of very large molecules.
 https://doi.org/10.1063/1.4811331

 Krack, M. 
 THEORETICAL CHEMISTRY ACCOUNTS, 114 (1-3), 145-152 (2005). 
 Pseudopotentials for H to Kr optimized for gradient-corrected
 exchange-correlation functionals.
 https://doi.org/10.1007/s00214-005-0655-y

 VandeVondele, J; Krack, M; Mohamed, F; Parrinello, M; Chassaing, T;
 Hutter, J. COMPUTER PHYSICS COMMUNICATIONS, 167 (2), 103-128 (2005). 
 QUICKSTEP: Fast and accurate density functional calculations using a
 mixed Gaussian and plane waves approach.
 https://doi.org/10.1016/j.cpc.2004.12.014

 Frigo, M; Johnson, SG. 
 PROCEEDINGS OF THE IEEE, 93 (2), 216-231 (2005). 
 The design and implementation of FFTW3.
 https://doi.org/10.1109/JPROC.2004.840301

 Iannuzzi, M; Chassaing, T; Wallman, T; Hutter, J. 
 CHIMIA, 59 (7-8), 499-503 (2005). 
 Ground and excited state density functional calculations with the
 Gaussian and augmented-plane-wave method.
 https://doi.org/10.2533/000942905777676164

 Hartwigsen, C; Goedecker, S; Hutter, J. 
 PHYSICAL REVIEW B, 58 (7), 3641-3662 (1998). 
 Relativistic separable dual-space Gaussian pseudopotentials from H to Rn.
 https://doi.org/10.1103/PhysRevB.58.3641

 Lippert, G; Hutter, J; Parrinello, M. 
 MOLECULAR PHYSICS, 92 (3), 477-487 (1997). 
 A hybrid Gaussian and plane wave density functional scheme.
 https://doi.org/10.1080/002689797170220

 Perdew, JP; Burke, K; Ernzerhof, M. 
 PHYSICAL REVIEW LETTERS, 77 (18), 3865-3868 (1996). 
 Generalized gradient approximation made simple.
 https://doi.org/10.1103/PhysRevLett.77.3865

 Goedecker, S; Teter, M; Hutter, J. 
 PHYSICAL REVIEW B, 54 (3), 1703-1710 (1996). 
 Separable dual-space Gaussian pseudopotentials.
 https://doi.org/10.1103/PhysRevB.54.1703


 -------------------------------------------------------------------------------
 -                                                                             -
 -                                T I M I N G                                  -
 -                                                                             -
 -------------------------------------------------------------------------------
 SUBROUTINE                       CALLS  ASD         SELF TIME        TOTAL TIME
                                MAXIMUM       AVERAGE  MAXIMUM  AVERAGE  MAXIMUM
 CP2K                                 1  1.0    0.011    0.017 1167.500 1167.516
 qs_energies                          1  2.0    0.000    0.000 1167.293 1167.345
 qs_energies_properties               1  3.0    0.000    0.000 1163.322 1163.372
 tddfpt                               1  4.0    0.001    0.003 1163.322 1163.372
 tddfpt_energies                      1  5.0    0.000    0.001 1159.369 1159.384
 tddfpt_davidson_solver               2  6.0    0.014    0.016 1127.250 1127.265
 cp_dbcsr_sm_fm_multiply          27508  9.4    0.334    0.362  579.142  585.516
 dbcsr_multiply_generic           31576 11.4    1.195    1.419  492.302  537.729
 cp_dbcsr_sm_fm_multiply_core     27508 10.4    0.037    0.052  469.168  511.573
 tddfpt_compute_Aop_evects            8  7.0    0.000    0.000  479.701  479.741
 multiply_cannon                  31576 12.4    2.953    3.542  426.261  476.114
 multiply_cannon_loop             31576 13.4    8.360   10.421  409.930  458.604
 mp_waitall_1                   3813682 15.5  336.186  409.850  336.186  409.850
 stda_kernel                          8  8.0    0.006    0.009  399.311  399.351
 stda_calculate_kernel             4000  9.0    0.807    0.894  399.305  399.344
 multiply_cannon_metrocomm3     1389344 14.4    1.296    1.462  320.481  395.861
 tddfpt_orthonormalize_psi1_psi       9  6.9    3.422    3.788  320.923  320.928
 cp_fm_trace_a1b1t1_aa          6377250  8.0   72.895   84.297  187.523  207.896
 tddfpt_compute_ritz_vects            8  7.0    7.068   20.615  181.487  192.766
 multiply_cannon_multrec        1389344 14.4   69.183  189.425   69.330  189.554
 cp_fm_scale_and_add            *******  8.0  139.868  167.793  139.868  167.793
 mp_sum_dv                      6381571  9.0  114.085  157.807  114.085  157.807
 copy_dbcsr_to_fm                 27514 10.4    0.216    0.280   89.351  153.626
 mp_alltoall_i22                 102545 12.5   84.191  149.028   84.191  149.028
 tddfpt_compute_residual_vects        6  7.0    0.105    0.113  111.841  143.162
 dbcsr_desymmetrize_deep          27514 11.4    0.625    1.316   69.772  132.462
 parallel_gemm_fm                 14008  7.9    0.010    0.011  102.933  117.120
 parallel_gemm_fm_cosma           14008  8.9  102.923  117.109  102.923  117.109
 get_lowdin_x                      4000 10.0    0.005    0.007   86.293   86.343
 tddfpt_apply_energy_diff             8  8.0    0.031    0.033   80.390   80.391
 cp_fm_contracted_trace_a2b2t2_      20  8.0   68.667   74.251   77.416   77.500
 make_m2s                         63152 12.4    0.943    1.025   52.222   54.509
 tddfpt_orthogonalize_psi1_psi0       9  6.9    0.006    0.007   37.673   51.614
 dbcsr_complete_redistribute      75029 11.5    5.027    8.789   37.986   46.260
 make_images                      63152 13.4    3.575    4.940   42.592   45.332
 mp_sum_dm                         4029 10.0    9.522   42.826    9.522   42.826
 mp_sum_iv                          145  8.6    9.299   40.620    9.299   40.620
 copy_fm_to_dbcsr                 47515 10.6    0.102    0.113   22.229   32.926
 cp_dbcsr_plus_fm_fm_t_native      4003 10.0    0.029    0.033   24.490   29.417
 -------------------------------------------------------------------------------

 The number of warnings for this run is : 13
 
 -------------------------------------------------------------------------------
  **** **** ******  **  PROGRAM ENDED AT                 2023-12-26 16:13:42.041
 ***** ** ***  *** **   PROGRAM RAN ON                              ce897d79c871
 **    ****   ******    PROGRAM RAN BY                                 <unknown>
 ***** **    ** ** **   PROGRAM PROCESS ID                                   538
  **** **  *******  **  PROGRAM STOPPED IN                                  /mnt
